LIGGGHTS (Version LIGGGHTS-PUBLIC 3.8.0, compiled 2023-03-15-17:42:14 by weitinglinux, git commit 9fb7f67592be9304afca9cb6840892b3b7d048d6)
###Header for General commands###

#Simulation of particles
atom_style	granular
boundary	f f f			        #fixed boundaries -> particles will be deleted if leaving the simulation box
units		si
communicate	single vel yes	#default

newton		off				#default

###System variables###

#Definition of boundaries [m]
variable xmin equal -0.15
variable xmax equal 0.15

variable ymin equal -0.3
variable ymax equal 0.3

variable zmin equal -0.3
variable zmax equal 0.5

#Definition of the timestep
#timestep = 0.0001 second; Each iteration step represents 0.0001 seconds.
variable dt equal 1e-4


###Specific variables for current simulation####

variable natoms equal 2 	        #1 -> particle #2->funnel, screw, and screw_inv

#Variable for material properties#

#Young Modulus
#soft_particles yes
variable	youngModulusCon 	equal 	5e6	#N/mm² (30 to 50Gpa)
variable	youngModulus    	equal 	5e6	#N/mm² (30 to 50Gpa)

variable	youngModulusAcc 	equal 	2e4	#N/mm² (10Gpa)

#Poission ratio
variable 	poissionCon1	equal	0.3
variable 	poissionCon2	equal	0.3
variable 	poissionAcc	equal	0.25

#variable for contact properties#

#coefficient of restitution
variable	CoR11	equal	0.6
variable	CoR12	equal	0.6
variable	CoR21	equal	0.6
variable	CoR22	equal	0.6

#sliding friction coefficient
variable	sf11	equal	0.5
variable	sf12	equal	0.5
variable	sf21	equal	0.5
variable	sf22	equal	0.5

#rolling friction coefficient
variable	rf11	equal	0.05
variable	rf12	equal	0.05
variable	rf21	equal	0.05
variable	rf22	equal	0.05


#Variable for particle##

#Number of particle radius
variable	nradii	equal	2

#Concrete particles

variable	radiusCon1	equal	0.004	#m Fine aggregates
variable	radiusCon2	equal	0.008	#m Coarse aggregates

variable	frac1	        equal	0.6		#70%
variable	frac2	        equal	0.4		#30%

variable	densityCon	equal	2700	        #kg/m³ #aggregate desnsity


#Accelerator particles

variable	radiusAcc	equal	0.002	        #m
variable	densityAcc	equal	1200	        #kg/m³

#filling parameters#

##define the flowrate

variable        timeFactor	equal	10.0					#60 seconds
variable        filltime	equal	30.0					#60 seconds
variable        fillVoulume     equal   2                            		#Liter

#fill concrete
variable	fillmass	equal	${densityCon}*(${fillVoulume}/1000)	#kg
variable	fillmass	equal	2700*(${fillVoulume}/1000)	
variable	fillmass	equal	2700*(2/1000)	
variable	fillmassrate	equal	${fillmass}/${filltime}	                #kg/s; 5L/min
variable	fillmassrate	equal	5.4/${filltime}	                
variable	fillmassrate	equal	5.4/30	                

#fill accelertor
variable        factor          equal   0.08
variable	fillmassAcc	equal	${densityAcc}*${fillmass}*${factor}     #kg
variable	fillmassAcc	equal	1200*${fillmass}*${factor}     
variable	fillmassAcc	equal	1200*5.4*${factor}     
variable	fillmassAcc	equal	1200*5.4*0.08     
variable	fillmassrateAcc	equal	${fillmassAcc}/${filltime}	        #kg
variable	fillmassrateAcc	equal	518.4/${filltime}	        
variable	fillmassrateAcc	equal	518.4/30	        
#Transform time to iteration steps
variable	fillsteps	equal	${filltime}/${dt}
variable	fillsteps	equal	30/${dt}
variable	fillsteps	equal	30/0.0001


## define the speed
# rpm = roataion per minute
# ex. 60 rpm = 60 rev/min = 1 rev/s
variable        screwSpeed      equal   80.0                             #rpm
variable        screwPeriod     equal   ${screwSpeed}/60.0               #s/rev ,period of the srew rotation (time for 1 rotation)
variable        screwPeriod     equal   80/60.0               



####settle time####
variable	settletime	equal	1.0                             #second
variable	settlesteps	equal	${settletime}/${dt}		#Transform time to iteration steps
variable	settlesteps	equal	1/${dt}		
variable	settlesteps	equal	1/0.0001		


####mixing time####
variable	mixingTime	equal	30.0                            #sec
variable	mixingSteps	equal	${mixingTime}/${dt}		#Transform time to iteration steps
variable	mixingSteps	equal	30/${dt}		
variable	mixingSteps	equal	30/0.0001		


####Definition of simulationbox####
region		domain block ${xmin} ${xmax} ${ymin} ${ymax} ${zmin} ${zmax} units box
region		domain block -0.15 ${xmax} ${ymin} ${ymax} ${zmin} ${zmax} units box
region		domain block -0.15 0.15 ${ymin} ${ymax} ${zmin} ${zmax} units box
region		domain block -0.15 0.15 -0.3 ${ymax} ${zmin} ${zmax} units box
region		domain block -0.15 0.15 -0.3 0.3 ${zmin} ${zmax} units box
region		domain block -0.15 0.15 -0.3 0.3 -0.3 ${zmax} units box
region		domain block -0.15 0.15 -0.3 0.3 -0.3 0.5 units box
create_box	2 domain
Created orthogonal box = (-0.15 -0.3 -0.3) to (0.15 0.3 0.5)
  1 by 2 by 3 MPI processor grid
neighbor	0.002 bin		# 0.5 of particle radius may be good
neigh_modify	delay 0		        #default


####Definition of the contact models####

pair_style gran model hertz tangential history rolling_friction epsd2	#contact model
WARNING: 
	The contact model you specified is not located in any whitelist.
	Because of this the model will be run in an unoptimized version (increasing runtime by up to 20%).
	In order to optimize this model you have the following options:
		(i)  Run the genAutoExamplesWhitelist.sh script in your LIGGGHTS(R) source folder to automatically parse the input script
		(ii) Add the model combination by hand to your style_contact_model_user.whitelist that can be found in your LIGGGHTS(R) source folder
		(iii) Use the ENABLE_MODEL_* flag when building with cmake.
	If you perform one of the steps above LIGGGHTS(R) needs to be recompiled to generate the optimized code.

 (../contact_models.h:365)
pair_coeff * * 								#default

timestep ${dt}
timestep 0.0001

fix	integrator all nve/sphere			#default
fix	gravi all gravity 9.81 vector 0.0 0.0 -1.0	#gravity of 9.81 m/s² in negative z direction



###efinition of Material properties####

fix 	m1 all property/global youngsModulus peratomtype ${youngModulusCon} ${youngModulus}
fix 	m1 all property/global youngsModulus peratomtype 5000000 ${youngModulus}
fix 	m1 all property/global youngsModulus peratomtype 5000000 5000000
fix 	m2 all property/global poissonsRatio peratomtype ${poissionCon1} ${poissionAcc}
fix 	m2 all property/global poissonsRatio peratomtype 0.3 ${poissionAcc}
fix 	m2 all property/global poissonsRatio peratomtype 0.3 0.25
fix 	m3 all property/global coefficientRestitution peratomtypepair ${natoms} ${CoR11} ${CoR12} ${CoR21} ${CoR22}
fix 	m3 all property/global coefficientRestitution peratomtypepair 2 ${CoR11} ${CoR12} ${CoR21} ${CoR22}
fix 	m3 all property/global coefficientRestitution peratomtypepair 2 0.6 ${CoR12} ${CoR21} ${CoR22}
fix 	m3 all property/global coefficientRestitution peratomtypepair 2 0.6 0.6 ${CoR21} ${CoR22}
fix 	m3 all property/global coefficientRestitution peratomtypepair 2 0.6 0.6 0.6 ${CoR22}
fix 	m3 all property/global coefficientRestitution peratomtypepair 2 0.6 0.6 0.6 0.6
fix 	m4 all property/global coefficientFriction peratomtypepair ${natoms} ${sf11} ${sf12} ${sf21} ${sf22}
fix 	m4 all property/global coefficientFriction peratomtypepair 2 ${sf11} ${sf12} ${sf21} ${sf22}
fix 	m4 all property/global coefficientFriction peratomtypepair 2 0.5 ${sf12} ${sf21} ${sf22}
fix 	m4 all property/global coefficientFriction peratomtypepair 2 0.5 0.5 ${sf21} ${sf22}
fix 	m4 all property/global coefficientFriction peratomtypepair 2 0.5 0.5 0.5 ${sf22}
fix 	m4 all property/global coefficientFriction peratomtypepair 2 0.5 0.5 0.5 0.5
fix 	m5 all property/global coefficientRollingFriction peratomtypepair ${natoms} ${rf11} ${rf12} ${rf21} ${rf22}
fix 	m5 all property/global coefficientRollingFriction peratomtypepair 2 ${rf11} ${rf12} ${rf21} ${rf22}
fix 	m5 all property/global coefficientRollingFriction peratomtypepair 2 0.05 ${rf12} ${rf21} ${rf22}
fix 	m5 all property/global coefficientRollingFriction peratomtypepair 2 0.05 0.05 ${rf21} ${rf22}
fix 	m5 all property/global coefficientRollingFriction peratomtypepair 2 0.05 0.05 0.05 ${rf22}
fix 	m5 all property/global coefficientRollingFriction peratomtypepair 2 0.05 0.05 0.05 0.05


###Generation and Loading of the Geometry####

#load mesh from STL file. Type 2 for geometry. Scale down to transform mm to meters
fix	funnel 		all mesh/surface file meshes/funnel.stl type 2 scale 0.001

fix	screw 		all mesh/surface file meshes/impeller_1.stl type 2 scale 0.001 curvature 1e-5 curvature_tolerant yes
fix	screw_inv 	all mesh/surface file meshes/impeller_inver_2.stl type 2 scale 0.001 curvature 1e-5 curvature_tolerant yes

fix	walls 		all wall/gran model hertz tangential history rolling_friction epsd2 mesh n_meshes 3 meshes funnel screw screw_inv
WARNING: 
	The contact model you specified is not located in any whitelist.
	Because of this the model will be run in an unoptimized version (increasing runtime by up to 20%).
	In order to optimize this model you have the following options:
		(i)  Run the genAutoExamplesWhitelist.sh script in your LIGGGHTS(R) source folder to automatically parse the input script
		(ii) Add the model combination by hand to your style_contact_model_user.whitelist that can be found in your LIGGGHTS(R) source folder
		(iii) Use the ENABLE_MODEL_* flag when building with cmake.
	If you perform one of the steps above LIGGGHTS(R) needs to be recompiled to generate the optimized code.

 (../contact_models.h:365)



####Generation and Insertion of the particles####

fix	pts1 all particletemplate/sphere 10487 atom_type 1 density constant ${densityCon} radius constant ${radiusCon1}
fix	pts1 all particletemplate/sphere 10487 atom_type 1 density constant 2700 radius constant ${radiusCon1}
fix	pts1 all particletemplate/sphere 10487 atom_type 1 density constant 2700 radius constant 0.004

#fix	pts2 all particletemplate/sphere 11887 atom_type 1 density constant ${densityCon} radius constant ${radiusCon2}

fix	pts3 all particletemplate/sphere 10487 atom_type 1 density constant ${densityAcc} radius constant ${radiusAcc}
fix	pts3 all particletemplate/sphere 10487 atom_type 1 density constant 1200 radius constant ${radiusAcc}
fix	pts3 all particletemplate/sphere 10487 atom_type 1 density constant 1200 radius constant 0.002

#fix 	pdd1 all particledistribution/discrete 32452867 2 pts1 ${frac1} pts2 ${frac2}
fix 	pdd1 all particledistribution/discrete 32452867 1 pts1 1.0

fix 	pdd2 all particledistribution/discrete 32452843 1 pts3 1.0

fix	ins_mesh_con all mesh/surface/planar file meshes/insertion_con_simple_top.stl  type 1 scale 0.001
fix	ins_mesh_acc all mesh/surface/planar file meshes/insertion_acc.stl  type 1 scale 0.001

fix 	ins_con all insert/stream seed 86028121 distributiontemplate pdd1         mass ${fillmass} massrate ${fillmassrate} overlapcheck yes all_in yes vel constant  0  0 -0.5         insertion_face ins_mesh_con extrude_length 0.08
fix 	ins_con all insert/stream seed 86028121 distributiontemplate pdd1         mass 5.4 massrate ${fillmassrate} overlapcheck yes all_in yes vel constant  0  0 -0.5         insertion_face ins_mesh_con extrude_length 0.08
fix 	ins_con all insert/stream seed 86028121 distributiontemplate pdd1         mass 5.4 massrate 0.18 overlapcheck yes all_in yes vel constant  0  0 -0.5         insertion_face ins_mesh_con extrude_length 0.08

fix 	ins_acc all insert/stream seed 86028121 distributiontemplate pdd2         mass ${fillmassAcc} massrate ${fillmassrateAcc} overlapcheck yes all_in yes vel constant 0.4 0.3  0          insertion_face ins_mesh_acc extrude_length 0.02
fix 	ins_acc all insert/stream seed 86028121 distributiontemplate pdd2         mass 518.4 massrate ${fillmassrateAcc} overlapcheck yes all_in yes vel constant 0.4 0.3  0          insertion_face ins_mesh_acc extrude_length 0.02
fix 	ins_acc all insert/stream seed 86028121 distributiontemplate pdd2         mass 518.4 massrate 17.28 overlapcheck yes all_in yes vel constant 0.4 0.3  0          insertion_face ins_mesh_acc extrude_length 0.02


####Dumping of the data for post-processing to visualize####

shell	rmdir post
shell 	mkdir post
shell   mkdir simu

#Definition of the dumptime

variable dumptime equal 0.05	                        # Every 0.05 s 1 image
variable dumpstep equal ${dumptime}/${dt}	        # Transform to iteration steps
variable dumpstep equal 0.05/${dt}	        
variable dumpstep equal 0.05/0.0001	        


####Run####

#Run simulation iteration==1 and dump the file
run    	1
Setting up run at Sat Apr  1 16:01:37 2023

WARNING: Fix mesh: Mesh contains highly skewed element, moving mesh (if used) will not parallelize well (../surface_mesh_I.h:657)
WARNING: Fix mesh: Mesh contains highly skewed element, moving mesh (if used) will not parallelize well (../surface_mesh_I.h:657)
INFO: Particle insertion ins_con: 39.788736 particles every 1600 steps - particle rate 248.679599, (mass rate 1.800000e-01)
      7460 particles (mass 5.399719e+00) within 299200 steps
INFO: Particle insertion ins_acc: 17532.508531 particles every 408 steps - particle rate 429718.346348, (mass rate 1.728000e+01)
      12891550 particles (mass 5.184000e+02) within 299880 steps
Memory usage per processor = 15.0389 Mbytes
    Step    Atoms         KinEng            CPU 
       0        0              0              0 
INFO: Particle insertion ins_con: inserted 37 particle templates (mass 2.678145e-02) at step 1
 - a total of 37 particle templates (mass 2.678145e-02) inserted so far.
WARNING: Particle insertion: Less insertions than requested (../fix_insert.cpp:814)
INFO: Particle insertion ins_acc: inserted 5 particle templates (mass 2.010619e-04) at step 1
 - a total of 5 particle templates (mass 2.010619e-04) inserted so far.
WARNING: Particle insertion: Less insertions than requested (../fix_insert.cpp:814)
       1       42   0.0033717506      4.5195273 
Loop time of 4.51955 on 6 procs for 1 steps with 42 atoms, finish time Sat Apr  1 16:01:41 2023


Pair  time (%) = 4.96883e-06 (0.000109941)
Neigh time (%) = 0.000217421 (0.00481068)
Comm  time (%) = 0.000227334 (0.00503001)
Outpt time (%) = 0.00134042 (0.0296583)
Other time (%) = 4.51776 (99.9604)

Nlocal:    7 ave 19 max 0 min
Histogram: 3 0 1 0 0 0 0 0 0 2
Nghost:    5.16667 ave 13 max 0 min
Histogram: 2 0 1 1 0 0 0 0 1 1
Neighs:    3.5 ave 9 max 0 min
Histogram: 3 0 0 0 1 0 0 0 1 1

Total # of neighbors = 21
Ave neighs/atom = 0.5
Neighbor list builds = 1
Dangerous builds = 0
dump   	dmpparticle all custom/vtk ${dumpstep} post/particles_*.vtk id type type x y z ix iy iz vx vy vz fx fy fz omegax omegay omegaz radius
dump   	dmpparticle all custom/vtk 500 post/particles_*.vtk id type type x y z ix iy iz vx vy vz fx fy fz omegax omegay omegaz radius
dump   	dumpfunnel all mesh/stl ${dumpstep} post/funnel*.stl funnel
dump   	dumpfunnel all mesh/stl 500 post/funnel*.stl funnel
dump	dumpscrew all mesh/stl ${dumpstep} post/screw*.stl screw screw_inv
dump	dumpscrew all mesh/stl 500 post/screw*.stl screw screw_inv

#Run simulation

run     ${fillsteps}/100
run     300000/100
Setting up run at Sat Apr  1 16:01:41 2023

Memory usage per processor = 15.0389 Mbytes
    Step    Atoms         KinEng            CPU 
       1       42   0.0033717506              0 
INFO: Particle insertion ins_acc: inserted 4 particle templates (mass 1.608495e-04) at step 409
 - a total of 9 particle templates (mass 3.619115e-04) inserted so far.
WARNING: Particle insertion: Less insertions than requested (../fix_insert.cpp:814)
INFO: Particle insertion ins_acc: inserted 5 particle templates (mass 2.010619e-04) at step 817
 - a total of 14 particle templates (mass 5.629734e-04) inserted so far.
WARNING: Particle insertion: Less insertions than requested (../fix_insert.cpp:814)
INFO: Particle insertion ins_acc: inserted 3 particle templates (mass 1.206372e-04) at step 1225
 - a total of 17 particle templates (mass 6.836106e-04) inserted so far.
WARNING: Particle insertion: Less insertions than requested (../fix_insert.cpp:814)
INFO: Particle insertion ins_con: inserted 37 particle templates (mass 2.678145e-02) at step 1601
 - a total of 74 particle templates (mass 5.356290e-02) inserted so far.
WARNING: Particle insertion: Less insertions than requested (../fix_insert.cpp:814)
INFO: Particle insertion ins_acc: inserted 3 particle templates (mass 1.206372e-04) at step 1633
 - a total of 20 particle templates (mass 8.042477e-04) inserted so far.
WARNING: Particle insertion: Less insertions than requested (../fix_insert.cpp:814)
INFO: Particle insertion ins_acc: inserted 4 particle templates (mass 1.608495e-04) at step 2041
 - a total of 24 particle templates (mass 9.650973e-04) inserted so far.
WARNING: Particle insertion: Less insertions than requested (../fix_insert.cpp:814)
INFO: Particle insertion ins_acc: inserted 4 particle templates (mass 1.608495e-04) at step 2449
 - a total of 28 particle templates (mass 1.125947e-03) inserted so far.
WARNING: Particle insertion: Less insertions than requested (../fix_insert.cpp:814)
INFO: Particle insertion ins_acc: inserted 4 particle templates (mass 1.608495e-04) at step 2857
 - a total of 32 particle templates (mass 1.286796e-03) inserted so far.
WARNING: Particle insertion: Less insertions than requested (../fix_insert.cpp:814)
INFO: Particle insertion ins_con: inserted 37 particle templates (mass 2.678145e-02) at step 3201
 - a total of 111 particle templates (mass 8.034435e-02) inserted so far.
WARNING: Particle insertion: Less insertions than requested (../fix_insert.cpp:814)
INFO: Particle insertion ins_acc: inserted 4 particle templates (mass 1.608495e-04) at step 3265
 - a total of 36 particle templates (mass 1.447646e-03) inserted so far.
WARNING: Particle insertion: Less insertions than requested (../fix_insert.cpp:814)
INFO: Particle insertion ins_acc: inserted 3 particle templates (mass 1.206372e-04) at step 3673
 - a total of 39 particle templates (mass 1.568283e-03) inserted so far.
WARNING: Particle insertion: Less insertions than requested (../fix_insert.cpp:814)
INFO: Particle insertion ins_acc: inserted 4 particle templates (mass 1.608495e-04) at step 4081
 - a total of 43 particle templates (mass 1.729133e-03) inserted so far.
WARNING: Particle insertion: Less insertions than requested (../fix_insert.cpp:814)
INFO: Particle insertion ins_acc: inserted 4 particle templates (mass 1.608495e-04) at step 4489
 - a total of 47 particle templates (mass 1.889982e-03) inserted so far.
WARNING: Particle insertion: Less insertions than requested (../fix_insert.cpp:814)
INFO: Particle insertion ins_con: inserted 37 particle templates (mass 2.678145e-02) at step 4801
 - a total of 148 particle templates (mass 1.071258e-01) inserted so far.
WARNING: Particle insertion: Less insertions than requested (../fix_insert.cpp:814)
INFO: Particle insertion ins_acc: inserted 4 particle templates (mass 1.608495e-04) at step 4897
 - a total of 51 particle templates (mass 2.050832e-03) inserted so far.
WARNING: Particle insertion: Less insertions than requested (../fix_insert.cpp:814)
INFO: Particle insertion ins_acc: inserted 4 particle templates (mass 1.608495e-04) at step 5305
 - a total of 55 particle templates (mass 2.211681e-03) inserted so far.
WARNING: Particle insertion: Less insertions than requested (../fix_insert.cpp:814)
INFO: Particle insertion ins_acc: inserted 4 particle templates (mass 1.608495e-04) at step 5713
 - a total of 59 particle templates (mass 2.372531e-03) inserted so far.
WARNING: Particle insertion: Less insertions than requested (../fix_insert.cpp:814)
INFO: Particle insertion ins_acc: inserted 3 particle templates (mass 1.206372e-04) at step 6121
 - a total of 62 particle templates (mass 2.493168e-03) inserted so far.
WARNING: Particle insertion: Less insertions than requested (../fix_insert.cpp:814)
INFO: Particle insertion ins_con: inserted 38 particle templates (mass 2.750527e-02) at step 6401
 - a total of 186 particle templates (mass 1.346311e-01) inserted so far.
WARNING: Particle insertion: Less insertions than requested (../fix_insert.cpp:814)
INFO: Particle insertion ins_acc: inserted 4 particle templates (mass 1.608495e-04) at step 6529
 - a total of 66 particle templates (mass 2.654017e-03) inserted so far.
WARNING: Particle insertion: Less insertions than requested (../fix_insert.cpp:814)
INFO: Particle insertion ins_acc: inserted 5 particle templates (mass 2.010619e-04) at step 6937
 - a total of 71 particle templates (mass 2.855079e-03) inserted so far.
WARNING: Particle insertion: Less insertions than requested (../fix_insert.cpp:814)
INFO: Particle insertion ins_acc: inserted 3 particle templates (mass 1.206372e-04) at step 7345
 - a total of 74 particle templates (mass 2.975717e-03) inserted so far.
WARNING: Particle insertion: Less insertions than requested (../fix_insert.cpp:814)
INFO: Particle insertion ins_acc: inserted 4 particle templates (mass 1.608495e-04) at step 7753
 - a total of 78 particle templates (mass 3.136566e-03) inserted so far.
WARNING: Particle insertion: Less insertions than requested (../fix_insert.cpp:814)
INFO: Particle insertion ins_con: inserted 37 particle templates (mass 2.678145e-02) at step 8001
 - a total of 223 particle templates (mass 1.614125e-01) inserted so far.
WARNING: Particle insertion: Less insertions than requested (../fix_insert.cpp:814)
INFO: Particle insertion ins_acc: inserted 5 particle templates (mass 2.010619e-04) at step 8161
 - a total of 83 particle templates (mass 3.337628e-03) inserted so far.
WARNING: Particle insertion: Less insertions than requested (../fix_insert.cpp:814)
INFO: Particle insertion ins_acc: inserted 3 particle templates (mass 1.206372e-04) at step 8569
 - a total of 86 particle templates (mass 3.458265e-03) inserted so far.
WARNING: Particle insertion: Less insertions than requested (../fix_insert.cpp:814)
INFO: Particle insertion ins_acc: inserted 3 particle templates (mass 1.206372e-04) at step 8977
 - a total of 89 particle templates (mass 3.578902e-03) inserted so far.
WARNING: Particle insertion: Less insertions than requested (../fix_insert.cpp:814)
INFO: Particle insertion ins_acc: inserted 4 particle templates (mass 1.608495e-04) at step 9385
 - a total of 93 particle templates (mass 3.739752e-03) inserted so far.
WARNING: Particle insertion: Less insertions than requested (../fix_insert.cpp:814)
INFO: Particle insertion ins_con: inserted 37 particle templates (mass 2.678145e-02) at step 9601
 - a total of 260 particle templates (mass 1.881940e-01) inserted so far.
WARNING: Particle insertion: Less insertions than requested (../fix_insert.cpp:814)
INFO: Particle insertion ins_acc: inserted 4 particle templates (mass 1.608495e-04) at step 9793
 - a total of 97 particle templates (mass 3.900601e-03) inserted so far.
WARNING: Particle insertion: Less insertions than requested (../fix_insert.cpp:814)
INFO: Particle insertion ins_acc: inserted 4 particle templates (mass 1.608495e-04) at step 10201
 - a total of 101 particle templates (mass 4.061451e-03) inserted so far.
WARNING: Particle insertion: Less insertions than requested (../fix_insert.cpp:814)
INFO: Particle insertion ins_acc: inserted 4 particle templates (mass 1.608495e-04) at step 10609
 - a total of 105 particle templates (mass 4.222301e-03) inserted so far.
WARNING: Particle insertion: Less insertions than requested (../fix_insert.cpp:814)
INFO: Particle insertion ins_acc: inserted 3 particle templates (mass 1.206372e-04) at step 11017
 - a total of 108 particle templates (mass 4.342938e-03) inserted so far.
WARNING: Particle insertion: Less insertions than requested (../fix_insert.cpp:814)
INFO: Particle insertion ins_con: inserted 37 particle templates (mass 2.678145e-02) at step 11201
 - a total of 297 particle templates (mass 2.149754e-01) inserted so far.
WARNING: Particle insertion: Less insertions than requested (../fix_insert.cpp:814)
INFO: Particle insertion ins_acc: inserted 4 particle templates (mass 1.608495e-04) at step 11425
 - a total of 112 particle templates (mass 4.503787e-03) inserted so far.
WARNING: Particle insertion: Less insertions than requested (../fix_insert.cpp:814)
INFO: Particle insertion ins_acc: inserted 4 particle templates (mass 1.608495e-04) at step 11833
 - a total of 116 particle templates (mass 4.664637e-03) inserted so far.
WARNING: Particle insertion: Less insertions than requested (../fix_insert.cpp:814)
INFO: Particle insertion ins_acc: inserted 4 particle templates (mass 1.608495e-04) at step 12241
 - a total of 120 particle templates (mass 4.825486e-03) inserted so far.
WARNING: Particle insertion: Less insertions than requested (../fix_insert.cpp:814)
INFO: Particle insertion ins_acc: inserted 4 particle templates (mass 1.608495e-04) at step 12649
 - a total of 124 particle templates (mass 4.986336e-03) inserted so far.
WARNING: Particle insertion: Less insertions than requested (../fix_insert.cpp:814)
INFO: Particle insertion ins_con: inserted 36 particle templates (mass 2.605763e-02) at step 12801
 - a total of 333 particle templates (mass 2.410330e-01) inserted so far.
WARNING: Particle insertion: Less insertions than requested (../fix_insert.cpp:814)
INFO: Particle insertion ins_acc: inserted 3 particle templates (mass 1.206372e-04) at step 13057
 - a total of 127 particle templates (mass 5.106973e-03) inserted so far.
WARNING: Particle insertion: Less insertions than requested (../fix_insert.cpp:814)
INFO: Particle insertion ins_acc: inserted 5 particle templates (mass 2.010619e-04) at step 13465
 - a total of 132 particle templates (mass 5.308035e-03) inserted so far.
WARNING: Particle insertion: Less insertions than requested (../fix_insert.cpp:814)
INFO: Particle insertion ins_acc: inserted 4 particle templates (mass 1.608495e-04) at step 13873
 - a total of 136 particle templates (mass 5.468884e-03) inserted so far.
WARNING: Particle insertion: Less insertions than requested (../fix_insert.cpp:814)
INFO: Particle insertion ins_acc: inserted 4 particle templates (mass 1.608495e-04) at step 14281
 - a total of 140 particle templates (mass 5.629734e-03) inserted so far.
WARNING: Particle insertion: Less insertions than requested (../fix_insert.cpp:814)
INFO: Particle insertion ins_con: inserted 38 particle templates (mass 2.750527e-02) at step 14401
 - a total of 371 particle templates (mass 2.685383e-01) inserted so far.
WARNING: Particle insertion: Less insertions than requested (../fix_insert.cpp:814)
INFO: Particle insertion ins_acc: inserted 5 particle templates (mass 2.010619e-04) at step 14689
 - a total of 145 particle templates (mass 5.830796e-03) inserted so far.
WARNING: Particle insertion: Less insertions than requested (../fix_insert.cpp:814)
INFO: Particle insertion ins_acc: inserted 4 particle templates (mass 1.608495e-04) at step 15097
 - a total of 149 particle templates (mass 5.991646e-03) inserted so far.
WARNING: Particle insertion: Less insertions than requested (../fix_insert.cpp:814)
INFO: Particle insertion ins_acc: inserted 4 particle templates (mass 1.608495e-04) at step 15505
 - a total of 153 particle templates (mass 6.152495e-03) inserted so far.
WARNING: Particle insertion: Less insertions than requested (../fix_insert.cpp:814)
INFO: Particle insertion ins_acc: inserted 4 particle templates (mass 1.608495e-04) at step 15913
 - a total of 157 particle templates (mass 6.313345e-03) inserted so far.
WARNING: Particle insertion: Less insertions than requested (../fix_insert.cpp:814)
INFO: Particle insertion ins_con: inserted 38 particle templates (mass 2.750527e-02) at step 16001
 - a total of 409 particle templates (mass 2.960436e-01) inserted so far.
WARNING: Particle insertion: Less insertions than requested (../fix_insert.cpp:814)
INFO: Particle insertion ins_acc: inserted 4 particle templates (mass 1.608495e-04) at step 16321
 - a total of 161 particle templates (mass 6.474194e-03) inserted so far.
WARNING: Particle insertion: Less insertions than requested (../fix_insert.cpp:814)
INFO: Particle insertion ins_acc: inserted 3 particle templates (mass 1.206372e-04) at step 16729
 - a total of 164 particle templates (mass 6.594831e-03) inserted so far.
WARNING: Particle insertion: Less insertions than requested (../fix_insert.cpp:814)
INFO: Particle insertion ins_acc: inserted 4 particle templates (mass 1.608495e-04) at step 17137
 - a total of 168 particle templates (mass 6.755681e-03) inserted so far.
WARNING: Particle insertion: Less insertions than requested (../fix_insert.cpp:814)
INFO: Particle insertion ins_acc: inserted 4 particle templates (mass 1.608495e-04) at step 17545
 - a total of 172 particle templates (mass 6.916530e-03) inserted so far.
WARNING: Particle insertion: Less insertions than requested (../fix_insert.cpp:814)
INFO: Particle insertion ins_con: inserted 36 particle templates (mass 2.605763e-02) at step 17601
 - a total of 445 particle templates (mass 3.221012e-01) inserted so far.
WARNING: Particle insertion: Less insertions than requested (../fix_insert.cpp:814)
INFO: Particle insertion ins_acc: inserted 4 particle templates (mass 1.608495e-04) at step 17953
 - a total of 176 particle templates (mass 7.077380e-03) inserted so far.
WARNING: Particle insertion: Less insertions than requested (../fix_insert.cpp:814)
INFO: Particle insertion ins_acc: inserted 4 particle templates (mass 1.608495e-04) at step 18361
 - a total of 180 particle templates (mass 7.238229e-03) inserted so far.
WARNING: Particle insertion: Less insertions than requested (../fix_insert.cpp:814)
INFO: Particle insertion ins_acc: inserted 4 particle templates (mass 1.608495e-04) at step 18769
 - a total of 184 particle templates (mass 7.399079e-03) inserted so far.
WARNING: Particle insertion: Less insertions than requested (../fix_insert.cpp:814)
INFO: Particle insertion ins_acc: inserted 4 particle templates (mass 1.608495e-04) at step 19177
 - a total of 188 particle templates (mass 7.559929e-03) inserted so far.
WARNING: Particle insertion: Less insertions than requested (../fix_insert.cpp:814)
INFO: Particle insertion ins_con: inserted 37 particle templates (mass 2.678145e-02) at step 19201
 - a total of 482 particle templates (mass 3.488827e-01) inserted so far.
WARNING: Particle insertion: Less insertions than requested (../fix_insert.cpp:814)
INFO: Particle insertion ins_acc: inserted 4 particle templates (mass 1.608495e-04) at step 19585
 - a total of 192 particle templates (mass 7.720778e-03) inserted so far.
WARNING: Particle insertion: Less insertions than requested (../fix_insert.cpp:814)
INFO: Particle insertion ins_acc: inserted 3 particle templates (mass 1.206372e-04) at step 19993
 - a total of 195 particle templates (mass 7.841415e-03) inserted so far.
WARNING: Particle insertion: Less insertions than requested (../fix_insert.cpp:814)
INFO: Particle insertion ins_acc: inserted 3 particle templates (mass 1.206372e-04) at step 20401
 - a total of 198 particle templates (mass 7.962052e-03) inserted so far.
WARNING: Particle insertion: Less insertions than requested (../fix_insert.cpp:814)
INFO: Particle insertion ins_con: inserted 37 particle templates (mass 2.678145e-02) at step 20801
 - a total of 519 particle templates (mass 3.756641e-01) inserted so far.
WARNING: Particle insertion: Less insertions than requested (../fix_insert.cpp:814)
INFO: Particle insertion ins_acc: inserted 4 particle templates (mass 1.608495e-04) at step 20809
 - a total of 202 particle templates (mass 8.122902e-03) inserted so far.
WARNING: Particle insertion: Less insertions than requested (../fix_insert.cpp:814)
INFO: Particle insertion ins_acc: inserted 4 particle templates (mass 1.608495e-04) at step 21217
 - a total of 206 particle templates (mass 8.283752e-03) inserted so far.
WARNING: Particle insertion: Less insertions than requested (../fix_insert.cpp:814)
INFO: Particle insertion ins_acc: inserted 3 particle templates (mass 1.206372e-04) at step 21625
 - a total of 209 particle templates (mass 8.404389e-03) inserted so far.
WARNING: Particle insertion: Less insertions than requested (../fix_insert.cpp:814)
INFO: Particle insertion ins_acc: inserted 4 particle templates (mass 1.608495e-04) at step 22033
 - a total of 213 particle templates (mass 8.565238e-03) inserted so far.
WARNING: Particle insertion: Less insertions than requested (../fix_insert.cpp:814)
INFO: Particle insertion ins_con: inserted 38 particle templates (mass 2.750527e-02) at step 22401
 - a total of 557 particle templates (mass 4.031694e-01) inserted so far.
WARNING: Particle insertion: Less insertions than requested (../fix_insert.cpp:814)
INFO: Particle insertion ins_acc: inserted 3 particle templates (mass 1.206372e-04) at step 22441
 - a total of 216 particle templates (mass 8.685875e-03) inserted so far.
WARNING: Particle insertion: Less insertions than requested (../fix_insert.cpp:814)
INFO: Particle insertion ins_acc: inserted 5 particle templates (mass 2.010619e-04) at step 22849
 - a total of 221 particle templates (mass 8.886937e-03) inserted so far.
WARNING: Particle insertion: Less insertions than requested (../fix_insert.cpp:814)
INFO: Particle insertion ins_acc: inserted 4 particle templates (mass 1.608495e-04) at step 23257
 - a total of 225 particle templates (mass 9.047787e-03) inserted so far.
WARNING: Particle insertion: Less insertions than requested (../fix_insert.cpp:814)
INFO: Particle insertion ins_acc: inserted 4 particle templates (mass 1.608495e-04) at step 23665
 - a total of 229 particle templates (mass 9.208636e-03) inserted so far.
WARNING: Particle insertion: Less insertions than requested (../fix_insert.cpp:814)
INFO: Particle insertion ins_con: inserted 37 particle templates (mass 2.678145e-02) at step 24001
 - a total of 594 particle templates (mass 4.299508e-01) inserted so far.
WARNING: Particle insertion: Less insertions than requested (../fix_insert.cpp:814)
INFO: Particle insertion ins_acc: inserted 4 particle templates (mass 1.608495e-04) at step 24073
 - a total of 233 particle templates (mass 9.369486e-03) inserted so far.
WARNING: Particle insertion: Less insertions than requested (../fix_insert.cpp:814)
INFO: Particle insertion ins_acc: inserted 4 particle templates (mass 1.608495e-04) at step 24481
 - a total of 237 particle templates (mass 9.530335e-03) inserted so far.
WARNING: Particle insertion: Less insertions than requested (../fix_insert.cpp:814)
INFO: Particle insertion ins_acc: inserted 3 particle templates (mass 1.206372e-04) at step 24889
 - a total of 240 particle templates (mass 9.650973e-03) inserted so far.
WARNING: Particle insertion: Less insertions than requested (../fix_insert.cpp:814)
INFO: Particle insertion ins_acc: inserted 4 particle templates (mass 1.608495e-04) at step 25297
 - a total of 244 particle templates (mass 9.811822e-03) inserted so far.
WARNING: Particle insertion: Less insertions than requested (../fix_insert.cpp:814)
INFO: Particle insertion ins_con: inserted 38 particle templates (mass 2.750527e-02) at step 25601
 - a total of 632 particle templates (mass 4.574561e-01) inserted so far.
WARNING: Particle insertion: Less insertions than requested (../fix_insert.cpp:814)
INFO: Particle insertion ins_acc: inserted 4 particle templates (mass 1.608495e-04) at step 25705
 - a total of 248 particle templates (mass 9.972672e-03) inserted so far.
WARNING: Particle insertion: Less insertions than requested (../fix_insert.cpp:814)
INFO: Particle insertion ins_acc: inserted 3 particle templates (mass 1.206372e-04) at step 26113
 - a total of 251 particle templates (mass 1.009331e-02) inserted so far.
WARNING: Particle insertion: Less insertions than requested (../fix_insert.cpp:814)
INFO: Particle insertion ins_acc: inserted 4 particle templates (mass 1.608495e-04) at step 26521
 - a total of 255 particle templates (mass 1.025416e-02) inserted so far.
WARNING: Particle insertion: Less insertions than requested (../fix_insert.cpp:814)
INFO: Particle insertion ins_acc: inserted 4 particle templates (mass 1.608495e-04) at step 26929
 - a total of 259 particle templates (mass 1.041501e-02) inserted so far.
WARNING: Particle insertion: Less insertions than requested (../fix_insert.cpp:814)
INFO: Particle insertion ins_con: inserted 37 particle templates (mass 2.678145e-02) at step 27201
 - a total of 669 particle templates (mass 4.842376e-01) inserted so far.
WARNING: Particle insertion: Less insertions than requested (../fix_insert.cpp:814)
INFO: Particle insertion ins_acc: inserted 3 particle templates (mass 1.206372e-04) at step 27337
 - a total of 262 particle templates (mass 1.053565e-02) inserted so far.
WARNING: Particle insertion: Less insertions than requested (../fix_insert.cpp:814)
INFO: Particle insertion ins_acc: inserted 5 particle templates (mass 2.010619e-04) at step 27745
 - a total of 267 particle templates (mass 1.073671e-02) inserted so far.
WARNING: Particle insertion: Less insertions than requested (../fix_insert.cpp:814)
INFO: Particle insertion ins_acc: inserted 4 particle templates (mass 1.608495e-04) at step 28153
 - a total of 271 particle templates (mass 1.089756e-02) inserted so far.
WARNING: Particle insertion: Less insertions than requested (../fix_insert.cpp:814)
INFO: Particle insertion ins_acc: inserted 4 particle templates (mass 1.608495e-04) at step 28561
 - a total of 275 particle templates (mass 1.105841e-02) inserted so far.
WARNING: Particle insertion: Less insertions than requested (../fix_insert.cpp:814)
INFO: Particle insertion ins_con: inserted 38 particle templates (mass 2.750527e-02) at step 28801
 - a total of 707 particle templates (mass 5.117428e-01) inserted so far.
WARNING: Particle insertion: Less insertions than requested (../fix_insert.cpp:814)
INFO: Particle insertion ins_acc: inserted 4 particle templates (mass 1.608495e-04) at step 28969
 - a total of 279 particle templates (mass 1.121926e-02) inserted so far.
WARNING: Particle insertion: Less insertions than requested (../fix_insert.cpp:814)
INFO: Particle insertion ins_acc: inserted 4 particle templates (mass 1.608495e-04) at step 29377
 - a total of 283 particle templates (mass 1.138011e-02) inserted so far.
WARNING: Particle insertion: Less insertions than requested (../fix_insert.cpp:814)
INFO: Particle insertion ins_acc: inserted 4 particle templates (mass 1.608495e-04) at step 29785
 - a total of 287 particle templates (mass 1.154095e-02) inserted so far.
WARNING: Particle insertion: Less insertions than requested (../fix_insert.cpp:814)
INFO: Particle insertion ins_acc: inserted 3 particle templates (mass 1.206372e-04) at step 30193
 - a total of 290 particle templates (mass 1.166159e-02) inserted so far.
WARNING: Particle insertion: Less insertions than requested (../fix_insert.cpp:814)
INFO: Particle insertion ins_con: inserted 38 particle templates (mass 2.750527e-02) at step 30401
 - a total of 745 particle templates (mass 5.392481e-01) inserted so far.
WARNING: Particle insertion: Less insertions than requested (../fix_insert.cpp:814)
INFO: Particle insertion ins_acc: inserted 5 particle templates (mass 2.010619e-04) at step 30601
 - a total of 295 particle templates (mass 1.186265e-02) inserted so far.
WARNING: Particle insertion: Less insertions than requested (../fix_insert.cpp:814)
INFO: Particle insertion ins_acc: inserted 4 particle templates (mass 1.608495e-04) at step 31009
 - a total of 299 particle templates (mass 1.202350e-02) inserted so far.
WARNING: Particle insertion: Less insertions than requested (../fix_insert.cpp:814)
INFO: Particle insertion ins_acc: inserted 4 particle templates (mass 1.608495e-04) at step 31417
 - a total of 303 particle templates (mass 1.218435e-02) inserted so far.
WARNING: Particle insertion: Less insertions than requested (../fix_insert.cpp:814)
INFO: Particle insertion ins_acc: inserted 3 particle templates (mass 1.206372e-04) at step 31825
 - a total of 306 particle templates (mass 1.230499e-02) inserted so far.
WARNING: Particle insertion: Less insertions than requested (../fix_insert.cpp:814)
INFO: Particle insertion ins_con: inserted 36 particle templates (mass 2.605763e-02) at step 32001
 - a total of 781 particle templates (mass 5.653057e-01) inserted so far.
WARNING: Particle insertion: Less insertions than requested (../fix_insert.cpp:814)
INFO: Particle insertion ins_acc: inserted 3 particle templates (mass 1.206372e-04) at step 32233
 - a total of 309 particle templates (mass 1.242563e-02) inserted so far.
WARNING: Particle insertion: Less insertions than requested (../fix_insert.cpp:814)
INFO: Particle insertion ins_acc: inserted 4 particle templates (mass 1.608495e-04) at step 32641
 - a total of 313 particle templates (mass 1.258648e-02) inserted so far.
WARNING: Particle insertion: Less insertions than requested (../fix_insert.cpp:814)
INFO: Particle insertion ins_acc: inserted 4 particle templates (mass 1.608495e-04) at step 33049
 - a total of 317 particle templates (mass 1.274733e-02) inserted so far.
WARNING: Particle insertion: Less insertions than requested (../fix_insert.cpp:814)
INFO: Particle insertion ins_acc: inserted 4 particle templates (mass 1.608495e-04) at step 33457
 - a total of 321 particle templates (mass 1.290818e-02) inserted so far.
WARNING: Particle insertion: Less insertions than requested (../fix_insert.cpp:814)
INFO: Particle insertion ins_con: inserted 38 particle templates (mass 2.750527e-02) at step 33601
 - a total of 819 particle templates (mass 5.928110e-01) inserted so far.
WARNING: Particle insertion: Less insertions than requested (../fix_insert.cpp:814)
INFO: Particle insertion ins_acc: inserted 5 particle templates (mass 2.010619e-04) at step 33865
 - a total of 326 particle templates (mass 1.310924e-02) inserted so far.
WARNING: Particle insertion: Less insertions than requested (../fix_insert.cpp:814)
INFO: Particle insertion ins_acc: inserted 3 particle templates (mass 1.206372e-04) at step 34273
 - a total of 329 particle templates (mass 1.322987e-02) inserted so far.
WARNING: Particle insertion: Less insertions than requested (../fix_insert.cpp:814)
INFO: Particle insertion ins_acc: inserted 3 particle templates (mass 1.206372e-04) at step 34681
 - a total of 332 particle templates (mass 1.335051e-02) inserted so far.
WARNING: Particle insertion: Less insertions than requested (../fix_insert.cpp:814)
INFO: Particle insertion ins_acc: inserted 3 particle templates (mass 1.206372e-04) at step 35089
 - a total of 335 particle templates (mass 1.347115e-02) inserted so far.
WARNING: Particle insertion: Less insertions than requested (../fix_insert.cpp:814)
INFO: Particle insertion ins_con: inserted 37 particle templates (mass 2.678145e-02) at step 35201
 - a total of 856 particle templates (mass 6.195924e-01) inserted so far.
WARNING: Particle insertion: Less insertions than requested (../fix_insert.cpp:814)
INFO: Particle insertion ins_acc: inserted 4 particle templates (mass 1.608495e-04) at step 35497
 - a total of 339 particle templates (mass 1.363200e-02) inserted so far.
WARNING: Particle insertion: Less insertions than requested (../fix_insert.cpp:814)
INFO: Particle insertion ins_acc: inserted 4 particle templates (mass 1.608495e-04) at step 35905
 - a total of 343 particle templates (mass 1.379285e-02) inserted so far.
WARNING: Particle insertion: Less insertions than requested (../fix_insert.cpp:814)
INFO: Particle insertion ins_acc: inserted 3 particle templates (mass 1.206372e-04) at step 36313
 - a total of 346 particle templates (mass 1.391349e-02) inserted so far.
WARNING: Particle insertion: Less insertions than requested (../fix_insert.cpp:814)
INFO: Particle insertion ins_acc: inserted 4 particle templates (mass 1.608495e-04) at step 36721
 - a total of 350 particle templates (mass 1.407434e-02) inserted so far.
WARNING: Particle insertion: Less insertions than requested (../fix_insert.cpp:814)
INFO: Particle insertion ins_con: inserted 38 particle templates (mass 2.750527e-02) at step 36801
 - a total of 894 particle templates (mass 6.470977e-01) inserted so far.
WARNING: Particle insertion: Less insertions than requested (../fix_insert.cpp:814)
INFO: Particle insertion ins_acc: inserted 4 particle templates (mass 1.608495e-04) at step 37129
 - a total of 354 particle templates (mass 1.423518e-02) inserted so far.
WARNING: Particle insertion: Less insertions than requested (../fix_insert.cpp:814)
INFO: Particle insertion ins_acc: inserted 4 particle templates (mass 1.608495e-04) at step 37537
 - a total of 358 particle templates (mass 1.439603e-02) inserted so far.
WARNING: Particle insertion: Less insertions than requested (../fix_insert.cpp:814)
INFO: Particle insertion ins_acc: inserted 3 particle templates (mass 1.206372e-04) at step 37945
 - a total of 361 particle templates (mass 1.451667e-02) inserted so far.
WARNING: Particle insertion: Less insertions than requested (../fix_insert.cpp:814)
INFO: Particle insertion ins_acc: inserted 4 particle templates (mass 1.608495e-04) at step 38353
 - a total of 365 particle templates (mass 1.467752e-02) inserted so far.
WARNING: Particle insertion: Less insertions than requested (../fix_insert.cpp:814)
INFO: Particle insertion ins_con: inserted 38 particle templates (mass 2.750527e-02) at step 38401
 - a total of 932 particle templates (mass 6.746030e-01) inserted so far.
WARNING: Particle insertion: Less insertions than requested (../fix_insert.cpp:814)
INFO: Particle insertion ins_acc: inserted 3 particle templates (mass 1.206372e-04) at step 38761
 - a total of 368 particle templates (mass 1.479816e-02) inserted so far.
WARNING: Particle insertion: Less insertions than requested (../fix_insert.cpp:814)
INFO: Particle insertion ins_acc: inserted 3 particle templates (mass 1.206372e-04) at step 39169
 - a total of 371 particle templates (mass 1.491880e-02) inserted so far.
WARNING: Particle insertion: Less insertions than requested (../fix_insert.cpp:814)
INFO: Particle insertion ins_acc: inserted 3 particle templates (mass 1.206372e-04) at step 39577
 - a total of 374 particle templates (mass 1.503943e-02) inserted so far.
WARNING: Particle insertion: Less insertions than requested (../fix_insert.cpp:814)
INFO: Particle insertion ins_acc: inserted 4 particle templates (mass 1.608495e-04) at step 39985
 - a total of 378 particle templates (mass 1.520028e-02) inserted so far.
WARNING: Particle insertion: Less insertions than requested (../fix_insert.cpp:814)
INFO: Particle insertion ins_con: inserted 38 particle templates (mass 2.750527e-02) at step 40001
 - a total of 970 particle templates (mass 7.021083e-01) inserted so far.
WARNING: Particle insertion: Less insertions than requested (../fix_insert.cpp:814)
INFO: Particle insertion ins_acc: inserted 4 particle templates (mass 1.608495e-04) at step 40393
 - a total of 382 particle templates (mass 1.536113e-02) inserted so far.
WARNING: Particle insertion: Less insertions than requested (../fix_insert.cpp:814)
INFO: Particle insertion ins_acc: inserted 4 particle templates (mass 1.608495e-04) at step 40801
 - a total of 386 particle templates (mass 1.552198e-02) inserted so far.
WARNING: Particle insertion: Less insertions than requested (../fix_insert.cpp:814)
INFO: Particle insertion ins_acc: inserted 3 particle templates (mass 1.206372e-04) at step 41209
 - a total of 389 particle templates (mass 1.564262e-02) inserted so far.
WARNING: Particle insertion: Less insertions than requested (../fix_insert.cpp:814)
INFO: Particle insertion ins_con: inserted 38 particle templates (mass 2.750527e-02) at step 41601
 - a total of 1008 particle templates (mass 7.296135e-01) inserted so far.
WARNING: Particle insertion: Less insertions than requested (../fix_insert.cpp:814)
INFO: Particle insertion ins_acc: inserted 4 particle templates (mass 1.608495e-04) at step 41617
 - a total of 393 particle templates (mass 1.580347e-02) inserted so far.
WARNING: Particle insertion: Less insertions than requested (../fix_insert.cpp:814)
INFO: Particle insertion ins_acc: inserted 3 particle templates (mass 1.206372e-04) at step 42025
 - a total of 396 particle templates (mass 1.592410e-02) inserted so far.
WARNING: Particle insertion: Less insertions than requested (../fix_insert.cpp:814)
INFO: Particle insertion ins_acc: inserted 4 particle templates (mass 1.608495e-04) at step 42433
 - a total of 400 particle templates (mass 1.608495e-02) inserted so far.
WARNING: Particle insertion: Less insertions than requested (../fix_insert.cpp:814)
INFO: Particle insertion ins_acc: inserted 3 particle templates (mass 1.206372e-04) at step 42841
 - a total of 403 particle templates (mass 1.620559e-02) inserted so far.
WARNING: Particle insertion: Less insertions than requested (../fix_insert.cpp:814)
INFO: Particle insertion ins_con: inserted 37 particle templates (mass 2.678145e-02) at step 43201
 - a total of 1045 particle templates (mass 7.563950e-01) inserted so far.
WARNING: Particle insertion: Less insertions than requested (../fix_insert.cpp:814)
INFO: Particle insertion ins_acc: inserted 4 particle templates (mass 1.608495e-04) at step 43249
 - a total of 407 particle templates (mass 1.636644e-02) inserted so far.
WARNING: Particle insertion: Less insertions than requested (../fix_insert.cpp:814)
INFO: Particle insertion ins_acc: inserted 3 particle templates (mass 1.206372e-04) at step 43657
 - a total of 410 particle templates (mass 1.648708e-02) inserted so far.
WARNING: Particle insertion: Less insertions than requested (../fix_insert.cpp:814)
INFO: Particle insertion ins_acc: inserted 4 particle templates (mass 1.608495e-04) at step 44065
 - a total of 414 particle templates (mass 1.664793e-02) inserted so far.
WARNING: Particle insertion: Less insertions than requested (../fix_insert.cpp:814)
INFO: Particle insertion ins_acc: inserted 4 particle templates (mass 1.608495e-04) at step 44473
 - a total of 418 particle templates (mass 1.680878e-02) inserted so far.
WARNING: Particle insertion: Less insertions than requested (../fix_insert.cpp:814)
INFO: Particle insertion ins_con: inserted 37 particle templates (mass 2.678145e-02) at step 44801
 - a total of 1082 particle templates (mass 7.831764e-01) inserted so far.
WARNING: Particle insertion: Less insertions than requested (../fix_insert.cpp:814)
INFO: Particle insertion ins_acc: inserted 4 particle templates (mass 1.608495e-04) at step 44881
 - a total of 422 particle templates (mass 1.696963e-02) inserted so far.
WARNING: Particle insertion: Less insertions than requested (../fix_insert.cpp:814)
INFO: Particle insertion ins_acc: inserted 4 particle templates (mass 1.608495e-04) at step 45289
 - a total of 426 particle templates (mass 1.713048e-02) inserted so far.
WARNING: Particle insertion: Less insertions than requested (../fix_insert.cpp:814)
INFO: Particle insertion ins_acc: inserted 3 particle templates (mass 1.206372e-04) at step 45697
 - a total of 429 particle templates (mass 1.725111e-02) inserted so far.
WARNING: Particle insertion: Less insertions than requested (../fix_insert.cpp:814)
INFO: Particle insertion ins_acc: inserted 4 particle templates (mass 1.608495e-04) at step 46105
 - a total of 433 particle templates (mass 1.741196e-02) inserted so far.
WARNING: Particle insertion: Less insertions than requested (../fix_insert.cpp:814)
INFO: Particle insertion ins_con: inserted 38 particle templates (mass 2.750527e-02) at step 46401
 - a total of 1120 particle templates (mass 8.106817e-01) inserted so far.
WARNING: Particle insertion: Less insertions than requested (../fix_insert.cpp:814)
INFO: Particle insertion ins_acc: inserted 5 particle templates (mass 2.010619e-04) at step 46513
 - a total of 438 particle templates (mass 1.761303e-02) inserted so far.
WARNING: Particle insertion: Less insertions than requested (../fix_insert.cpp:814)
INFO: Particle insertion ins_acc: inserted 4 particle templates (mass 1.608495e-04) at step 46921
 - a total of 442 particle templates (mass 1.777387e-02) inserted so far.
WARNING: Particle insertion: Less insertions than requested (../fix_insert.cpp:814)
INFO: Particle insertion ins_acc: inserted 4 particle templates (mass 1.608495e-04) at step 47329
 - a total of 446 particle templates (mass 1.793472e-02) inserted so far.
WARNING: Particle insertion: Less insertions than requested (../fix_insert.cpp:814)
INFO: Particle insertion ins_acc: inserted 4 particle templates (mass 1.608495e-04) at step 47737
 - a total of 450 particle templates (mass 1.809557e-02) inserted so far.
WARNING: Particle insertion: Less insertions than requested (../fix_insert.cpp:814)
INFO: Particle insertion ins_con: inserted 38 particle templates (mass 2.750527e-02) at step 48001
 - a total of 1158 particle templates (mass 8.381870e-01) inserted so far.
WARNING: Particle insertion: Less insertions than requested (../fix_insert.cpp:814)
INFO: Particle insertion ins_acc: inserted 4 particle templates (mass 1.608495e-04) at step 48145
 - a total of 454 particle templates (mass 1.825642e-02) inserted so far.
WARNING: Particle insertion: Less insertions than requested (../fix_insert.cpp:814)
INFO: Particle insertion ins_acc: inserted 3 particle templates (mass 1.206372e-04) at step 48553
 - a total of 457 particle templates (mass 1.837706e-02) inserted so far.
WARNING: Particle insertion: Less insertions than requested (../fix_insert.cpp:814)
INFO: Particle insertion ins_acc: inserted 4 particle templates (mass 1.608495e-04) at step 48961
 - a total of 461 particle templates (mass 1.853791e-02) inserted so far.
WARNING: Particle insertion: Less insertions than requested (../fix_insert.cpp:814)
INFO: Particle insertion ins_acc: inserted 4 particle templates (mass 1.608495e-04) at step 49369
 - a total of 465 particle templates (mass 1.869876e-02) inserted so far.
WARNING: Particle insertion: Less insertions than requested (../fix_insert.cpp:814)
INFO: Particle insertion ins_con: inserted 37 particle templates (mass 2.678145e-02) at step 49601
 - a total of 1195 particle templates (mass 8.649684e-01) inserted so far.
WARNING: Particle insertion: Less insertions than requested (../fix_insert.cpp:814)
INFO: Particle insertion ins_acc: inserted 4 particle templates (mass 1.608495e-04) at step 49777
 - a total of 469 particle templates (mass 1.885961e-02) inserted so far.
WARNING: Particle insertion: Less insertions than requested (../fix_insert.cpp:814)
INFO: Particle insertion ins_acc: inserted 4 particle templates (mass 1.608495e-04) at step 50185
 - a total of 473 particle templates (mass 1.902046e-02) inserted so far.
WARNING: Particle insertion: Less insertions than requested (../fix_insert.cpp:814)
INFO: Particle insertion ins_acc: inserted 3 particle templates (mass 1.206372e-04) at step 50593
 - a total of 476 particle templates (mass 1.914110e-02) inserted so far.
WARNING: Particle insertion: Less insertions than requested (../fix_insert.cpp:814)
INFO: Particle insertion ins_acc: inserted 4 particle templates (mass 1.608495e-04) at step 51001
 - a total of 480 particle templates (mass 1.930195e-02) inserted so far.
WARNING: Particle insertion: Less insertions than requested (../fix_insert.cpp:814)
INFO: Particle insertion ins_con: inserted 38 particle templates (mass 2.750527e-02) at step 51201
 - a total of 1233 particle templates (mass 8.924737e-01) inserted so far.
WARNING: Particle insertion: Less insertions than requested (../fix_insert.cpp:814)
INFO: Particle insertion ins_acc: inserted 4 particle templates (mass 1.608495e-04) at step 51409
 - a total of 484 particle templates (mass 1.946279e-02) inserted so far.
WARNING: Particle insertion: Less insertions than requested (../fix_insert.cpp:814)
INFO: Particle insertion ins_acc: inserted 3 particle templates (mass 1.206372e-04) at step 51817
 - a total of 487 particle templates (mass 1.958343e-02) inserted so far.
WARNING: Particle insertion: Less insertions than requested (../fix_insert.cpp:814)
INFO: Particle insertion ins_acc: inserted 5 particle templates (mass 2.010619e-04) at step 52225
 - a total of 492 particle templates (mass 1.978449e-02) inserted so far.
WARNING: Particle insertion: Less insertions than requested (../fix_insert.cpp:814)
INFO: Particle insertion ins_acc: inserted 3 particle templates (mass 1.206372e-04) at step 52633
 - a total of 495 particle templates (mass 1.990513e-02) inserted so far.
WARNING: Particle insertion: Less insertions than requested (../fix_insert.cpp:814)
INFO: Particle insertion ins_con: inserted 38 particle templates (mass 2.750527e-02) at step 52801
 - a total of 1271 particle templates (mass 9.199790e-01) inserted so far.
WARNING: Particle insertion: Less insertions than requested (../fix_insert.cpp:814)
INFO: Particle insertion ins_acc: inserted 4 particle templates (mass 1.608495e-04) at step 53041
 - a total of 499 particle templates (mass 2.006598e-02) inserted so far.
WARNING: Particle insertion: Less insertions than requested (../fix_insert.cpp:814)
INFO: Particle insertion ins_acc: inserted 4 particle templates (mass 1.608495e-04) at step 53449
 - a total of 503 particle templates (mass 2.022683e-02) inserted so far.
WARNING: Particle insertion: Less insertions than requested (../fix_insert.cpp:814)
INFO: Particle insertion ins_acc: inserted 3 particle templates (mass 1.206372e-04) at step 53857
 - a total of 506 particle templates (mass 2.034747e-02) inserted so far.
WARNING: Particle insertion: Less insertions than requested (../fix_insert.cpp:814)
INFO: Particle insertion ins_acc: inserted 3 particle templates (mass 1.206372e-04) at step 54265
 - a total of 509 particle templates (mass 2.046810e-02) inserted so far.
WARNING: Particle insertion: Less insertions than requested (../fix_insert.cpp:814)
INFO: Particle insertion ins_con: inserted 37 particle templates (mass 2.678145e-02) at step 54401
 - a total of 1308 particle templates (mass 9.467604e-01) inserted so far.
WARNING: Particle insertion: Less insertions than requested (../fix_insert.cpp:814)
INFO: Particle insertion ins_acc: inserted 5 particle templates (mass 2.010619e-04) at step 54673
 - a total of 514 particle templates (mass 2.066917e-02) inserted so far.
WARNING: Particle insertion: Less insertions than requested (../fix_insert.cpp:814)
INFO: Particle insertion ins_acc: inserted 3 particle templates (mass 1.206372e-04) at step 55081
 - a total of 517 particle templates (mass 2.078980e-02) inserted so far.
WARNING: Particle insertion: Less insertions than requested (../fix_insert.cpp:814)
INFO: Particle insertion ins_acc: inserted 4 particle templates (mass 1.608495e-04) at step 55489
 - a total of 521 particle templates (mass 2.095065e-02) inserted so far.
WARNING: Particle insertion: Less insertions than requested (../fix_insert.cpp:814)
INFO: Particle insertion ins_acc: inserted 4 particle templates (mass 1.608495e-04) at step 55897
 - a total of 525 particle templates (mass 2.111150e-02) inserted so far.
WARNING: Particle insertion: Less insertions than requested (../fix_insert.cpp:814)
INFO: Particle insertion ins_con: inserted 37 particle templates (mass 2.678145e-02) at step 56001
 - a total of 1345 particle templates (mass 9.735419e-01) inserted so far.
WARNING: Particle insertion: Less insertions than requested (../fix_insert.cpp:814)
INFO: Particle insertion ins_acc: inserted 3 particle templates (mass 1.206372e-04) at step 56305
 - a total of 528 particle templates (mass 2.123214e-02) inserted so far.
WARNING: Particle insertion: Less insertions than requested (../fix_insert.cpp:814)
INFO: Particle insertion ins_acc: inserted 4 particle templates (mass 1.608495e-04) at step 56713
 - a total of 532 particle templates (mass 2.139299e-02) inserted so far.
WARNING: Particle insertion: Less insertions than requested (../fix_insert.cpp:814)
INFO: Particle insertion ins_acc: inserted 4 particle templates (mass 1.608495e-04) at step 57121
 - a total of 536 particle templates (mass 2.155384e-02) inserted so far.
WARNING: Particle insertion: Less insertions than requested (../fix_insert.cpp:814)
INFO: Particle insertion ins_acc: inserted 3 particle templates (mass 1.206372e-04) at step 57529
 - a total of 539 particle templates (mass 2.167448e-02) inserted so far.
WARNING: Particle insertion: Less insertions than requested (../fix_insert.cpp:814)
INFO: Particle insertion ins_con: inserted 38 particle templates (mass 2.750527e-02) at step 57601
 - a total of 1383 particle templates (mass 1.001047e+00) inserted so far.
WARNING: Particle insertion: Less insertions than requested (../fix_insert.cpp:814)
INFO: Particle insertion ins_acc: inserted 4 particle templates (mass 1.608495e-04) at step 57937
 - a total of 543 particle templates (mass 2.183533e-02) inserted so far.
WARNING: Particle insertion: Less insertions than requested (../fix_insert.cpp:814)
INFO: Particle insertion ins_acc: inserted 4 particle templates (mass 1.608495e-04) at step 58345
 - a total of 547 particle templates (mass 2.199618e-02) inserted so far.
WARNING: Particle insertion: Less insertions than requested (../fix_insert.cpp:814)
INFO: Particle insertion ins_acc: inserted 4 particle templates (mass 1.608495e-04) at step 58753
 - a total of 551 particle templates (mass 2.215702e-02) inserted so far.
WARNING: Particle insertion: Less insertions than requested (../fix_insert.cpp:814)
INFO: Particle insertion ins_acc: inserted 4 particle templates (mass 1.608495e-04) at step 59161
 - a total of 555 particle templates (mass 2.231787e-02) inserted so far.
WARNING: Particle insertion: Less insertions than requested (../fix_insert.cpp:814)
INFO: Particle insertion ins_con: inserted 38 particle templates (mass 2.750527e-02) at step 59201
 - a total of 1421 particle templates (mass 1.028552e+00) inserted so far.
WARNING: Particle insertion: Less insertions than requested (../fix_insert.cpp:814)
INFO: Particle insertion ins_acc: inserted 4 particle templates (mass 1.608495e-04) at step 59569
 - a total of 559 particle templates (mass 2.247872e-02) inserted so far.
WARNING: Particle insertion: Less insertions than requested (../fix_insert.cpp:814)
INFO: Particle insertion ins_acc: inserted 4 particle templates (mass 1.608495e-04) at step 59977
 - a total of 563 particle templates (mass 2.263957e-02) inserted so far.
WARNING: Particle insertion: Less insertions than requested (../fix_insert.cpp:814)
INFO: Particle insertion ins_acc: inserted 4 particle templates (mass 1.608495e-04) at step 60385
 - a total of 567 particle templates (mass 2.280042e-02) inserted so far.
WARNING: Particle insertion: Less insertions than requested (../fix_insert.cpp:814)
INFO: Particle insertion ins_acc: inserted 4 particle templates (mass 1.608495e-04) at step 60793
 - a total of 571 particle templates (mass 2.296127e-02) inserted so far.
WARNING: Particle insertion: Less insertions than requested (../fix_insert.cpp:814)
INFO: Particle insertion ins_con: inserted 36 particle templates (mass 2.605763e-02) at step 60801
 - a total of 1457 particle templates (mass 1.054610e+00) inserted so far.
WARNING: Particle insertion: Less insertions than requested (../fix_insert.cpp:814)
INFO: Particle insertion ins_acc: inserted 4 particle templates (mass 1.608495e-04) at step 61201
 - a total of 575 particle templates (mass 2.312212e-02) inserted so far.
WARNING: Particle insertion: Less insertions than requested (../fix_insert.cpp:814)
INFO: Particle insertion ins_acc: inserted 4 particle templates (mass 1.608495e-04) at step 61609
 - a total of 579 particle templates (mass 2.328297e-02) inserted so far.
WARNING: Particle insertion: Less insertions than requested (../fix_insert.cpp:814)
INFO: Particle insertion ins_acc: inserted 4 particle templates (mass 1.608495e-04) at step 62017
 - a total of 583 particle templates (mass 2.344382e-02) inserted so far.
WARNING: Particle insertion: Less insertions than requested (../fix_insert.cpp:814)
INFO: Particle insertion ins_con: inserted 37 particle templates (mass 2.678145e-02) at step 62401
 - a total of 1494 particle templates (mass 1.081391e+00) inserted so far.
WARNING: Particle insertion: Less insertions than requested (../fix_insert.cpp:814)
INFO: Particle insertion ins_acc: inserted 4 particle templates (mass 1.608495e-04) at step 62425
 - a total of 587 particle templates (mass 2.360467e-02) inserted so far.
WARNING: Particle insertion: Less insertions than requested (../fix_insert.cpp:814)
INFO: Particle insertion ins_acc: inserted 4 particle templates (mass 1.608495e-04) at step 62833
 - a total of 591 particle templates (mass 2.376552e-02) inserted so far.
WARNING: Particle insertion: Less insertions than requested (../fix_insert.cpp:814)
INFO: Particle insertion ins_acc: inserted 4 particle templates (mass 1.608495e-04) at step 63241
 - a total of 595 particle templates (mass 2.392637e-02) inserted so far.
WARNING: Particle insertion: Less insertions than requested (../fix_insert.cpp:814)
INFO: Particle insertion ins_acc: inserted 4 particle templates (mass 1.608495e-04) at step 63649
 - a total of 599 particle templates (mass 2.408722e-02) inserted so far.
WARNING: Particle insertion: Less insertions than requested (../fix_insert.cpp:814)
INFO: Particle insertion ins_con: inserted 37 particle templates (mass 2.678145e-02) at step 64001
 - a total of 1531 particle templates (mass 1.108173e+00) inserted so far.
WARNING: Particle insertion: Less insertions than requested (../fix_insert.cpp:814)
INFO: Particle insertion ins_acc: inserted 5 particle templates (mass 2.010619e-04) at step 64057
 - a total of 604 particle templates (mass 2.428828e-02) inserted so far.
WARNING: Particle insertion: Less insertions than requested (../fix_insert.cpp:814)
INFO: Particle insertion ins_acc: inserted 4 particle templates (mass 1.608495e-04) at step 64465
 - a total of 608 particle templates (mass 2.444913e-02) inserted so far.
WARNING: Particle insertion: Less insertions than requested (../fix_insert.cpp:814)
INFO: Particle insertion ins_acc: inserted 3 particle templates (mass 1.206372e-04) at step 64873
 - a total of 611 particle templates (mass 2.456977e-02) inserted so far.
WARNING: Particle insertion: Less insertions than requested (../fix_insert.cpp:814)
INFO: Particle insertion ins_acc: inserted 4 particle templates (mass 1.608495e-04) at step 65281
 - a total of 615 particle templates (mass 2.473062e-02) inserted so far.
WARNING: Particle insertion: Less insertions than requested (../fix_insert.cpp:814)
INFO: Particle insertion ins_con: inserted 38 particle templates (mass 2.750527e-02) at step 65601
 - a total of 1569 particle templates (mass 1.135678e+00) inserted so far.
WARNING: Particle insertion: Less insertions than requested (../fix_insert.cpp:814)
INFO: Particle insertion ins_acc: inserted 4 particle templates (mass 1.608495e-04) at step 65689
 - a total of 619 particle templates (mass 2.489147e-02) inserted so far.
WARNING: Particle insertion: Less insertions than requested (../fix_insert.cpp:814)
INFO: Particle insertion ins_acc: inserted 4 particle templates (mass 1.608495e-04) at step 66097
 - a total of 623 particle templates (mass 2.505232e-02) inserted so far.
WARNING: Particle insertion: Less insertions than requested (../fix_insert.cpp:814)
INFO: Particle insertion ins_acc: inserted 4 particle templates (mass 1.608495e-04) at step 66505
 - a total of 627 particle templates (mass 2.521317e-02) inserted so far.
WARNING: Particle insertion: Less insertions than requested (../fix_insert.cpp:814)
INFO: Particle insertion ins_acc: inserted 4 particle templates (mass 1.608495e-04) at step 66913
 - a total of 631 particle templates (mass 2.537402e-02) inserted so far.
WARNING: Particle insertion: Less insertions than requested (../fix_insert.cpp:814)
INFO: Particle insertion ins_con: inserted 37 particle templates (mass 2.678145e-02) at step 67201
 - a total of 1606 particle templates (mass 1.162460e+00) inserted so far.
WARNING: Particle insertion: Less insertions than requested (../fix_insert.cpp:814)
INFO: Particle insertion ins_acc: inserted 4 particle templates (mass 1.608495e-04) at step 67321
 - a total of 635 particle templates (mass 2.553487e-02) inserted so far.
WARNING: Particle insertion: Less insertions than requested (../fix_insert.cpp:814)
INFO: Particle insertion ins_acc: inserted 3 particle templates (mass 1.206372e-04) at step 67729
 - a total of 638 particle templates (mass 2.565550e-02) inserted so far.
WARNING: Particle insertion: Less insertions than requested (../fix_insert.cpp:814)
INFO: Particle insertion ins_acc: inserted 4 particle templates (mass 1.608495e-04) at step 68137
 - a total of 642 particle templates (mass 2.581635e-02) inserted so far.
WARNING: Particle insertion: Less insertions than requested (../fix_insert.cpp:814)
INFO: Particle insertion ins_acc: inserted 4 particle templates (mass 1.608495e-04) at step 68545
 - a total of 646 particle templates (mass 2.597720e-02) inserted so far.
WARNING: Particle insertion: Less insertions than requested (../fix_insert.cpp:814)
INFO: Particle insertion ins_con: inserted 37 particle templates (mass 2.678145e-02) at step 68801
 - a total of 1643 particle templates (mass 1.189241e+00) inserted so far.
WARNING: Particle insertion: Less insertions than requested (../fix_insert.cpp:814)
INFO: Particle insertion ins_acc: inserted 4 particle templates (mass 1.608495e-04) at step 68953
 - a total of 650 particle templates (mass 2.613805e-02) inserted so far.
WARNING: Particle insertion: Less insertions than requested (../fix_insert.cpp:814)
INFO: Particle insertion ins_acc: inserted 4 particle templates (mass 1.608495e-04) at step 69361
 - a total of 654 particle templates (mass 2.629890e-02) inserted so far.
WARNING: Particle insertion: Less insertions than requested (../fix_insert.cpp:814)
INFO: Particle insertion ins_acc: inserted 4 particle templates (mass 1.608495e-04) at step 69769
 - a total of 658 particle templates (mass 2.645975e-02) inserted so far.
WARNING: Particle insertion: Less insertions than requested (../fix_insert.cpp:814)
INFO: Particle insertion ins_acc: inserted 3 particle templates (mass 1.206372e-04) at step 70177
 - a total of 661 particle templates (mass 2.658039e-02) inserted so far.
WARNING: Particle insertion: Less insertions than requested (../fix_insert.cpp:814)
INFO: Particle insertion ins_con: inserted 37 particle templates (mass 2.678145e-02) at step 70401
 - a total of 1680 particle templates (mass 1.216023e+00) inserted so far.
WARNING: Particle insertion: Less insertions than requested (../fix_insert.cpp:814)
INFO: Particle insertion ins_acc: inserted 5 particle templates (mass 2.010619e-04) at step 70585
 - a total of 666 particle templates (mass 2.678145e-02) inserted so far.
WARNING: Particle insertion: Less insertions than requested (../fix_insert.cpp:814)
INFO: Particle insertion ins_acc: inserted 4 particle templates (mass 1.608495e-04) at step 70993
 - a total of 670 particle templates (mass 2.694230e-02) inserted so far.
WARNING: Particle insertion: Less insertions than requested (../fix_insert.cpp:814)
INFO: Particle insertion ins_acc: inserted 3 particle templates (mass 1.206372e-04) at step 71401
 - a total of 673 particle templates (mass 2.706294e-02) inserted so far.
WARNING: Particle insertion: Less insertions than requested (../fix_insert.cpp:814)
INFO: Particle insertion ins_acc: inserted 4 particle templates (mass 1.608495e-04) at step 71809
 - a total of 677 particle templates (mass 2.722379e-02) inserted so far.
WARNING: Particle insertion: Less insertions than requested (../fix_insert.cpp:814)
INFO: Particle insertion ins_con: inserted 37 particle templates (mass 2.678145e-02) at step 72001
 - a total of 1717 particle templates (mass 1.242804e+00) inserted so far.
WARNING: Particle insertion: Less insertions than requested (../fix_insert.cpp:814)
INFO: Particle insertion ins_acc: inserted 4 particle templates (mass 1.608495e-04) at step 72217
 - a total of 681 particle templates (mass 2.738463e-02) inserted so far.
WARNING: Particle insertion: Less insertions than requested (../fix_insert.cpp:814)
INFO: Particle insertion ins_acc: inserted 4 particle templates (mass 1.608495e-04) at step 72625
 - a total of 685 particle templates (mass 2.754548e-02) inserted so far.
WARNING: Particle insertion: Less insertions than requested (../fix_insert.cpp:814)
INFO: Particle insertion ins_acc: inserted 4 particle templates (mass 1.608495e-04) at step 73033
 - a total of 689 particle templates (mass 2.770633e-02) inserted so far.
WARNING: Particle insertion: Less insertions than requested (../fix_insert.cpp:814)
INFO: Particle insertion ins_acc: inserted 4 particle templates (mass 1.608495e-04) at step 73441
 - a total of 693 particle templates (mass 2.786718e-02) inserted so far.
WARNING: Particle insertion: Less insertions than requested (../fix_insert.cpp:814)
INFO: Particle insertion ins_con: inserted 38 particle templates (mass 2.750527e-02) at step 73601
 - a total of 1755 particle templates (mass 1.270309e+00) inserted so far.
WARNING: Particle insertion: Less insertions than requested (../fix_insert.cpp:814)
INFO: Particle insertion ins_acc: inserted 4 particle templates (mass 1.608495e-04) at step 73849
 - a total of 697 particle templates (mass 2.802803e-02) inserted so far.
WARNING: Particle insertion: Less insertions than requested (../fix_insert.cpp:814)
INFO: Particle insertion ins_acc: inserted 3 particle templates (mass 1.206372e-04) at step 74257
 - a total of 700 particle templates (mass 2.814867e-02) inserted so far.
WARNING: Particle insertion: Less insertions than requested (../fix_insert.cpp:814)
INFO: Particle insertion ins_acc: inserted 4 particle templates (mass 1.608495e-04) at step 74665
 - a total of 704 particle templates (mass 2.830952e-02) inserted so far.
WARNING: Particle insertion: Less insertions than requested (../fix_insert.cpp:814)
INFO: Particle insertion ins_acc: inserted 4 particle templates (mass 1.608495e-04) at step 75073
 - a total of 708 particle templates (mass 2.847037e-02) inserted so far.
WARNING: Particle insertion: Less insertions than requested (../fix_insert.cpp:814)
INFO: Particle insertion ins_con: inserted 37 particle templates (mass 2.678145e-02) at step 75201
 - a total of 1792 particle templates (mass 1.297091e+00) inserted so far.
WARNING: Particle insertion: Less insertions than requested (../fix_insert.cpp:814)
INFO: Particle insertion ins_acc: inserted 4 particle templates (mass 1.608495e-04) at step 75481
 - a total of 712 particle templates (mass 2.863122e-02) inserted so far.
WARNING: Particle insertion: Less insertions than requested (../fix_insert.cpp:814)
INFO: Particle insertion ins_acc: inserted 4 particle templates (mass 1.608495e-04) at step 75889
 - a total of 716 particle templates (mass 2.879207e-02) inserted so far.
WARNING: Particle insertion: Less insertions than requested (../fix_insert.cpp:814)
INFO: Particle insertion ins_acc: inserted 4 particle templates (mass 1.608495e-04) at step 76297
 - a total of 720 particle templates (mass 2.895292e-02) inserted so far.
WARNING: Particle insertion: Less insertions than requested (../fix_insert.cpp:814)
INFO: Particle insertion ins_acc: inserted 3 particle templates (mass 1.206372e-04) at step 76705
 - a total of 723 particle templates (mass 2.907356e-02) inserted so far.
WARNING: Particle insertion: Less insertions than requested (../fix_insert.cpp:814)
INFO: Particle insertion ins_con: inserted 38 particle templates (mass 2.750527e-02) at step 76801
 - a total of 1830 particle templates (mass 1.324596e+00) inserted so far.
WARNING: Particle insertion: Less insertions than requested (../fix_insert.cpp:814)
INFO: Particle insertion ins_acc: inserted 4 particle templates (mass 1.608495e-04) at step 77113
 - a total of 727 particle templates (mass 2.923440e-02) inserted so far.
WARNING: Particle insertion: Less insertions than requested (../fix_insert.cpp:814)
INFO: Particle insertion ins_acc: inserted 3 particle templates (mass 1.206372e-04) at step 77521
 - a total of 730 particle templates (mass 2.935504e-02) inserted so far.
WARNING: Particle insertion: Less insertions than requested (../fix_insert.cpp:814)
INFO: Particle insertion ins_acc: inserted 5 particle templates (mass 2.010619e-04) at step 77929
 - a total of 735 particle templates (mass 2.955610e-02) inserted so far.
WARNING: Particle insertion: Less insertions than requested (../fix_insert.cpp:814)
INFO: Particle insertion ins_acc: inserted 3 particle templates (mass 1.206372e-04) at step 78337
 - a total of 738 particle templates (mass 2.967674e-02) inserted so far.
WARNING: Particle insertion: Less insertions than requested (../fix_insert.cpp:814)
INFO: Particle insertion ins_con: inserted 38 particle templates (mass 2.750527e-02) at step 78401
 - a total of 1868 particle templates (mass 1.352101e+00) inserted so far.
WARNING: Particle insertion: Less insertions than requested (../fix_insert.cpp:814)
INFO: Particle insertion ins_acc: inserted 4 particle templates (mass 1.608495e-04) at step 78745
 - a total of 742 particle templates (mass 2.983759e-02) inserted so far.
WARNING: Particle insertion: Less insertions than requested (../fix_insert.cpp:814)
INFO: Particle insertion ins_acc: inserted 4 particle templates (mass 1.608495e-04) at step 79153
 - a total of 746 particle templates (mass 2.999844e-02) inserted so far.
WARNING: Particle insertion: Less insertions than requested (../fix_insert.cpp:814)
INFO: Particle insertion ins_acc: inserted 4 particle templates (mass 1.608495e-04) at step 79561
 - a total of 750 particle templates (mass 3.015929e-02) inserted so far.
WARNING: Particle insertion: Less insertions than requested (../fix_insert.cpp:814)
INFO: Particle insertion ins_acc: inserted 4 particle templates (mass 1.608495e-04) at step 79969
 - a total of 754 particle templates (mass 3.032014e-02) inserted so far.
WARNING: Particle insertion: Less insertions than requested (../fix_insert.cpp:814)
INFO: Particle insertion ins_con: inserted 38 particle templates (mass 2.750527e-02) at step 80001
 - a total of 1906 particle templates (mass 1.379607e+00) inserted so far.
WARNING: Particle insertion: Less insertions than requested (../fix_insert.cpp:814)
INFO: Particle insertion ins_acc: inserted 4 particle templates (mass 1.608495e-04) at step 80377
 - a total of 758 particle templates (mass 3.048099e-02) inserted so far.
WARNING: Particle insertion: Less insertions than requested (../fix_insert.cpp:814)
INFO: Particle insertion ins_acc: inserted 4 particle templates (mass 1.608495e-04) at step 80785
 - a total of 762 particle templates (mass 3.064184e-02) inserted so far.
WARNING: Particle insertion: Less insertions than requested (../fix_insert.cpp:814)
INFO: Particle insertion ins_acc: inserted 4 particle templates (mass 1.608495e-04) at step 81193
 - a total of 766 particle templates (mass 3.080269e-02) inserted so far.
WARNING: Particle insertion: Less insertions than requested (../fix_insert.cpp:814)
INFO: Particle insertion ins_con: inserted 37 particle templates (mass 2.678145e-02) at step 81601
 - a total of 1943 particle templates (mass 1.406388e+00) inserted so far.
WARNING: Particle insertion: Less insertions than requested (../fix_insert.cpp:814)
INFO: Particle insertion ins_acc: inserted 4 particle templates (mass 1.608495e-04) at step 81601
 - a total of 770 particle templates (mass 3.096354e-02) inserted so far.
WARNING: Particle insertion: Less insertions than requested (../fix_insert.cpp:814)
INFO: Particle insertion ins_acc: inserted 4 particle templates (mass 1.608495e-04) at step 82009
 - a total of 774 particle templates (mass 3.112439e-02) inserted so far.
WARNING: Particle insertion: Less insertions than requested (../fix_insert.cpp:814)
INFO: Particle insertion ins_acc: inserted 4 particle templates (mass 1.608495e-04) at step 82417
 - a total of 778 particle templates (mass 3.128524e-02) inserted so far.
[...]
 - a total of 5263 particle templates (mass 2.116378e-01) inserted so far.
WARNING: Particle insertion: Less insertions than requested (../fix_insert.cpp:814)
INFO: Particle insertion ins_acc: inserted 4 particle templates (mass 1.608495e-04) at step 569977
 - a total of 5267 particle templates (mass 2.117986e-01) inserted so far.
WARNING: Particle insertion: Less insertions than requested (../fix_insert.cpp:814)
INFO: Particle insertion ins_acc: inserted 4 particle templates (mass 1.608495e-04) at step 570385
 - a total of 5271 particle templates (mass 2.119595e-01) inserted so far.
WARNING: Particle insertion: Less insertions than requested (../fix_insert.cpp:814)
INFO: Particle insertion ins_acc: inserted 3 particle templates (mass 1.206372e-04) at step 570793
 - a total of 5274 particle templates (mass 2.120801e-01) inserted so far.
WARNING: Particle insertion: Less insertions than requested (../fix_insert.cpp:814)
INFO: Particle insertion ins_acc: inserted 4 particle templates (mass 1.608495e-04) at step 571201
 - a total of 5278 particle templates (mass 2.122410e-01) inserted so far.
WARNING: Particle insertion: Less insertions than requested (../fix_insert.cpp:814)
INFO: Particle insertion ins_acc: inserted 4 particle templates (mass 1.608495e-04) at step 571609
 - a total of 5282 particle templates (mass 2.124018e-01) inserted so far.
WARNING: Particle insertion: Less insertions than requested (../fix_insert.cpp:814)
INFO: Particle insertion ins_acc: inserted 4 particle templates (mass 1.608495e-04) at step 572017
 - a total of 5286 particle templates (mass 2.125627e-01) inserted so far.
WARNING: Particle insertion: Less insertions than requested (../fix_insert.cpp:814)
INFO: Particle insertion ins_acc: inserted 3 particle templates (mass 1.206372e-04) at step 572425
 - a total of 5289 particle templates (mass 2.126833e-01) inserted so far.
WARNING: Particle insertion: Less insertions than requested (../fix_insert.cpp:814)
INFO: Particle insertion ins_acc: inserted 3 particle templates (mass 1.206372e-04) at step 572833
 - a total of 5292 particle templates (mass 2.128039e-01) inserted so far.
WARNING: Particle insertion: Less insertions than requested (../fix_insert.cpp:814)
INFO: Particle insertion ins_acc: inserted 3 particle templates (mass 1.206372e-04) at step 573241
 - a total of 5295 particle templates (mass 2.129246e-01) inserted so far.
WARNING: Particle insertion: Less insertions than requested (../fix_insert.cpp:814)
INFO: Particle insertion ins_acc: inserted 4 particle templates (mass 1.608495e-04) at step 573649
 - a total of 5299 particle templates (mass 2.130854e-01) inserted so far.
WARNING: Particle insertion: Less insertions than requested (../fix_insert.cpp:814)
INFO: Particle insertion ins_acc: inserted 4 particle templates (mass 1.608495e-04) at step 574057
 - a total of 5303 particle templates (mass 2.132463e-01) inserted so far.
WARNING: Particle insertion: Less insertions than requested (../fix_insert.cpp:814)
INFO: Particle insertion ins_acc: inserted 3 particle templates (mass 1.206372e-04) at step 574465
 - a total of 5306 particle templates (mass 2.133669e-01) inserted so far.
WARNING: Particle insertion: Less insertions than requested (../fix_insert.cpp:814)
INFO: Particle insertion ins_acc: inserted 4 particle templates (mass 1.608495e-04) at step 574873
 - a total of 5310 particle templates (mass 2.135278e-01) inserted so far.
WARNING: Particle insertion: Less insertions than requested (../fix_insert.cpp:814)
INFO: Particle insertion ins_acc: inserted 4 particle templates (mass 1.608495e-04) at step 575281
 - a total of 5314 particle templates (mass 2.136886e-01) inserted so far.
WARNING: Particle insertion: Less insertions than requested (../fix_insert.cpp:814)
INFO: Particle insertion ins_acc: inserted 4 particle templates (mass 1.608495e-04) at step 575689
 - a total of 5318 particle templates (mass 2.138495e-01) inserted so far.
WARNING: Particle insertion: Less insertions than requested (../fix_insert.cpp:814)
INFO: Particle insertion ins_acc: inserted 4 particle templates (mass 1.608495e-04) at step 576097
 - a total of 5322 particle templates (mass 2.140103e-01) inserted so far.
WARNING: Particle insertion: Less insertions than requested (../fix_insert.cpp:814)
INFO: Particle insertion ins_acc: inserted 4 particle templates (mass 1.608495e-04) at step 576505
 - a total of 5326 particle templates (mass 2.141712e-01) inserted so far.
WARNING: Particle insertion: Less insertions than requested (../fix_insert.cpp:814)
INFO: Particle insertion ins_acc: inserted 3 particle templates (mass 1.206372e-04) at step 576913
 - a total of 5329 particle templates (mass 2.142918e-01) inserted so far.
WARNING: Particle insertion: Less insertions than requested (../fix_insert.cpp:814)
INFO: Particle insertion ins_acc: inserted 4 particle templates (mass 1.608495e-04) at step 577321
 - a total of 5333 particle templates (mass 2.144527e-01) inserted so far.
WARNING: Particle insertion: Less insertions than requested (../fix_insert.cpp:814)
INFO: Particle insertion ins_acc: inserted 3 particle templates (mass 1.206372e-04) at step 577729
 - a total of 5336 particle templates (mass 2.145733e-01) inserted so far.
WARNING: Particle insertion: Less insertions than requested (../fix_insert.cpp:814)
INFO: Particle insertion ins_acc: inserted 4 particle templates (mass 1.608495e-04) at step 578137
 - a total of 5340 particle templates (mass 2.147341e-01) inserted so far.
WARNING: Particle insertion: Less insertions than requested (../fix_insert.cpp:814)
INFO: Particle insertion ins_acc: inserted 4 particle templates (mass 1.608495e-04) at step 578545
 - a total of 5344 particle templates (mass 2.148950e-01) inserted so far.
WARNING: Particle insertion: Less insertions than requested (../fix_insert.cpp:814)
INFO: Particle insertion ins_acc: inserted 4 particle templates (mass 1.608495e-04) at step 578953
 - a total of 5348 particle templates (mass 2.150558e-01) inserted so far.
WARNING: Particle insertion: Less insertions than requested (../fix_insert.cpp:814)
INFO: Particle insertion ins_acc: inserted 4 particle templates (mass 1.608495e-04) at step 579361
 - a total of 5352 particle templates (mass 2.152167e-01) inserted so far.
WARNING: Particle insertion: Less insertions than requested (../fix_insert.cpp:814)
INFO: Particle insertion ins_acc: inserted 4 particle templates (mass 1.608495e-04) at step 579769
 - a total of 5356 particle templates (mass 2.153775e-01) inserted so far.
WARNING: Particle insertion: Less insertions than requested (../fix_insert.cpp:814)
INFO: Particle insertion ins_acc: inserted 4 particle templates (mass 1.608495e-04) at step 580177
 - a total of 5360 particle templates (mass 2.155384e-01) inserted so far.
WARNING: Particle insertion: Less insertions than requested (../fix_insert.cpp:814)
INFO: Particle insertion ins_acc: inserted 5 particle templates (mass 2.010619e-04) at step 580585
 - a total of 5365 particle templates (mass 2.157395e-01) inserted so far.
WARNING: Particle insertion: Less insertions than requested (../fix_insert.cpp:814)
INFO: Particle insertion ins_acc: inserted 4 particle templates (mass 1.608495e-04) at step 580993
 - a total of 5369 particle templates (mass 2.159003e-01) inserted so far.
WARNING: Particle insertion: Less insertions than requested (../fix_insert.cpp:814)
INFO: Particle insertion ins_acc: inserted 3 particle templates (mass 1.206372e-04) at step 581401
 - a total of 5372 particle templates (mass 2.160209e-01) inserted so far.
WARNING: Particle insertion: Less insertions than requested (../fix_insert.cpp:814)
INFO: Particle insertion ins_acc: inserted 4 particle templates (mass 1.608495e-04) at step 581809
 - a total of 5376 particle templates (mass 2.161818e-01) inserted so far.
WARNING: Particle insertion: Less insertions than requested (../fix_insert.cpp:814)
INFO: Particle insertion ins_acc: inserted 4 particle templates (mass 1.608495e-04) at step 582217
 - a total of 5380 particle templates (mass 2.163426e-01) inserted so far.
WARNING: Particle insertion: Less insertions than requested (../fix_insert.cpp:814)
INFO: Particle insertion ins_acc: inserted 3 particle templates (mass 1.206372e-04) at step 582625
 - a total of 5383 particle templates (mass 2.164633e-01) inserted so far.
WARNING: Particle insertion: Less insertions than requested (../fix_insert.cpp:814)
INFO: Particle insertion ins_acc: inserted 4 particle templates (mass 1.608495e-04) at step 583033
 - a total of 5387 particle templates (mass 2.166241e-01) inserted so far.
WARNING: Particle insertion: Less insertions than requested (../fix_insert.cpp:814)
INFO: Particle insertion ins_acc: inserted 3 particle templates (mass 1.206372e-04) at step 583441
 - a total of 5390 particle templates (mass 2.167448e-01) inserted so far.
WARNING: Particle insertion: Less insertions than requested (../fix_insert.cpp:814)
INFO: Particle insertion ins_acc: inserted 3 particle templates (mass 1.206372e-04) at step 583849
 - a total of 5393 particle templates (mass 2.168654e-01) inserted so far.
WARNING: Particle insertion: Less insertions than requested (../fix_insert.cpp:814)
INFO: Particle insertion ins_acc: inserted 3 particle templates (mass 1.206372e-04) at step 584257
 - a total of 5396 particle templates (mass 2.169860e-01) inserted so far.
WARNING: Particle insertion: Less insertions than requested (../fix_insert.cpp:814)
INFO: Particle insertion ins_acc: inserted 4 particle templates (mass 1.608495e-04) at step 584665
 - a total of 5400 particle templates (mass 2.171469e-01) inserted so far.
WARNING: Particle insertion: Less insertions than requested (../fix_insert.cpp:814)
INFO: Particle insertion ins_acc: inserted 4 particle templates (mass 1.608495e-04) at step 585073
 - a total of 5404 particle templates (mass 2.173077e-01) inserted so far.
WARNING: Particle insertion: Less insertions than requested (../fix_insert.cpp:814)
INFO: Particle insertion ins_acc: inserted 4 particle templates (mass 1.608495e-04) at step 585481
 - a total of 5408 particle templates (mass 2.174686e-01) inserted so far.
WARNING: Particle insertion: Less insertions than requested (../fix_insert.cpp:814)
INFO: Particle insertion ins_acc: inserted 3 particle templates (mass 1.206372e-04) at step 585889
 - a total of 5411 particle templates (mass 2.175892e-01) inserted so far.
WARNING: Particle insertion: Less insertions than requested (../fix_insert.cpp:814)
INFO: Particle insertion ins_acc: inserted 4 particle templates (mass 1.608495e-04) at step 586297
 - a total of 5415 particle templates (mass 2.177501e-01) inserted so far.
WARNING: Particle insertion: Less insertions than requested (../fix_insert.cpp:814)
INFO: Particle insertion ins_acc: inserted 3 particle templates (mass 1.206372e-04) at step 586705
 - a total of 5418 particle templates (mass 2.178707e-01) inserted so far.
WARNING: Particle insertion: Less insertions than requested (../fix_insert.cpp:814)
INFO: Particle insertion ins_acc: inserted 4 particle templates (mass 1.608495e-04) at step 587113
 - a total of 5422 particle templates (mass 2.180316e-01) inserted so far.
WARNING: Particle insertion: Less insertions than requested (../fix_insert.cpp:814)
INFO: Particle insertion ins_acc: inserted 4 particle templates (mass 1.608495e-04) at step 587521
 - a total of 5426 particle templates (mass 2.181924e-01) inserted so far.
WARNING: Particle insertion: Less insertions than requested (../fix_insert.cpp:814)
INFO: Particle insertion ins_acc: inserted 4 particle templates (mass 1.608495e-04) at step 587929
 - a total of 5430 particle templates (mass 2.183533e-01) inserted so far.
WARNING: Particle insertion: Less insertions than requested (../fix_insert.cpp:814)
INFO: Particle insertion ins_acc: inserted 4 particle templates (mass 1.608495e-04) at step 588337
 - a total of 5434 particle templates (mass 2.185141e-01) inserted so far.
WARNING: Particle insertion: Less insertions than requested (../fix_insert.cpp:814)
INFO: Particle insertion ins_acc: inserted 3 particle templates (mass 1.206372e-04) at step 588745
 - a total of 5437 particle templates (mass 2.186347e-01) inserted so far.
WARNING: Particle insertion: Less insertions than requested (../fix_insert.cpp:814)
INFO: Particle insertion ins_acc: inserted 4 particle templates (mass 1.608495e-04) at step 589153
 - a total of 5441 particle templates (mass 2.187956e-01) inserted so far.
WARNING: Particle insertion: Less insertions than requested (../fix_insert.cpp:814)
INFO: Particle insertion ins_acc: inserted 4 particle templates (mass 1.608495e-04) at step 589561
 - a total of 5445 particle templates (mass 2.189564e-01) inserted so far.
WARNING: Particle insertion: Less insertions than requested (../fix_insert.cpp:814)
INFO: Particle insertion ins_acc: inserted 4 particle templates (mass 1.608495e-04) at step 589969
 - a total of 5449 particle templates (mass 2.191173e-01) inserted so far.
WARNING: Particle insertion: Less insertions than requested (../fix_insert.cpp:814)
INFO: Particle insertion ins_acc: inserted 3 particle templates (mass 1.206372e-04) at step 590377
 - a total of 5452 particle templates (mass 2.192379e-01) inserted so far.
WARNING: Particle insertion: Less insertions than requested (../fix_insert.cpp:814)
INFO: Particle insertion ins_acc: inserted 3 particle templates (mass 1.206372e-04) at step 590785
 - a total of 5455 particle templates (mass 2.193586e-01) inserted so far.
WARNING: Particle insertion: Less insertions than requested (../fix_insert.cpp:814)
INFO: Particle insertion ins_acc: inserted 4 particle templates (mass 1.608495e-04) at step 591193
 - a total of 5459 particle templates (mass 2.195194e-01) inserted so far.
WARNING: Particle insertion: Less insertions than requested (../fix_insert.cpp:814)
INFO: Particle insertion ins_acc: inserted 4 particle templates (mass 1.608495e-04) at step 591601
 - a total of 5463 particle templates (mass 2.196803e-01) inserted so far.
WARNING: Particle insertion: Less insertions than requested (../fix_insert.cpp:814)
INFO: Particle insertion ins_acc: inserted 4 particle templates (mass 1.608495e-04) at step 592009
 - a total of 5467 particle templates (mass 2.198411e-01) inserted so far.
WARNING: Particle insertion: Less insertions than requested (../fix_insert.cpp:814)
INFO: Particle insertion ins_acc: inserted 4 particle templates (mass 1.608495e-04) at step 592417
 - a total of 5471 particle templates (mass 2.200020e-01) inserted so far.
WARNING: Particle insertion: Less insertions than requested (../fix_insert.cpp:814)
INFO: Particle insertion ins_acc: inserted 4 particle templates (mass 1.608495e-04) at step 592825
 - a total of 5475 particle templates (mass 2.201628e-01) inserted so far.
WARNING: Particle insertion: Less insertions than requested (../fix_insert.cpp:814)
INFO: Particle insertion ins_acc: inserted 4 particle templates (mass 1.608495e-04) at step 593233
 - a total of 5479 particle templates (mass 2.203237e-01) inserted so far.
WARNING: Particle insertion: Less insertions than requested (../fix_insert.cpp:814)
INFO: Particle insertion ins_acc: inserted 3 particle templates (mass 1.206372e-04) at step 593641
 - a total of 5482 particle templates (mass 2.204443e-01) inserted so far.
WARNING: Particle insertion: Less insertions than requested (../fix_insert.cpp:814)
INFO: Particle insertion ins_acc: inserted 4 particle templates (mass 1.608495e-04) at step 594049
 - a total of 5486 particle templates (mass 2.206051e-01) inserted so far.
WARNING: Particle insertion: Less insertions than requested (../fix_insert.cpp:814)
INFO: Particle insertion ins_acc: inserted 4 particle templates (mass 1.608495e-04) at step 594457
 - a total of 5490 particle templates (mass 2.207660e-01) inserted so far.
WARNING: Particle insertion: Less insertions than requested (../fix_insert.cpp:814)
INFO: Particle insertion ins_acc: inserted 4 particle templates (mass 1.608495e-04) at step 594865
 - a total of 5494 particle templates (mass 2.209268e-01) inserted so far.
WARNING: Particle insertion: Less insertions than requested (../fix_insert.cpp:814)
INFO: Particle insertion ins_acc: inserted 3 particle templates (mass 1.206372e-04) at step 595273
 - a total of 5497 particle templates (mass 2.210475e-01) inserted so far.
WARNING: Particle insertion: Less insertions than requested (../fix_insert.cpp:814)
INFO: Particle insertion ins_acc: inserted 5 particle templates (mass 2.010619e-04) at step 595681
 - a total of 5502 particle templates (mass 2.212485e-01) inserted so far.
WARNING: Particle insertion: Less insertions than requested (../fix_insert.cpp:814)
INFO: Particle insertion ins_acc: inserted 3 particle templates (mass 1.206372e-04) at step 596089
 - a total of 5505 particle templates (mass 2.213692e-01) inserted so far.
WARNING: Particle insertion: Less insertions than requested (../fix_insert.cpp:814)
INFO: Particle insertion ins_acc: inserted 4 particle templates (mass 1.608495e-04) at step 596497
 - a total of 5509 particle templates (mass 2.215300e-01) inserted so far.
WARNING: Particle insertion: Less insertions than requested (../fix_insert.cpp:814)
INFO: Particle insertion ins_acc: inserted 3 particle templates (mass 1.206372e-04) at step 596905
 - a total of 5512 particle templates (mass 2.216507e-01) inserted so far.
WARNING: Particle insertion: Less insertions than requested (../fix_insert.cpp:814)
INFO: Particle insertion ins_acc: inserted 4 particle templates (mass 1.608495e-04) at step 597313
 - a total of 5516 particle templates (mass 2.218115e-01) inserted so far.
WARNING: Particle insertion: Less insertions than requested (../fix_insert.cpp:814)
INFO: Particle insertion ins_acc: inserted 4 particle templates (mass 1.608495e-04) at step 597721
 - a total of 5520 particle templates (mass 2.219724e-01) inserted so far.
WARNING: Particle insertion: Less insertions than requested (../fix_insert.cpp:814)
INFO: Particle insertion ins_acc: inserted 3 particle templates (mass 1.206372e-04) at step 598129
 - a total of 5523 particle templates (mass 2.220930e-01) inserted so far.
WARNING: Particle insertion: Less insertions than requested (../fix_insert.cpp:814)
INFO: Particle insertion ins_acc: inserted 4 particle templates (mass 1.608495e-04) at step 598537
 - a total of 5527 particle templates (mass 2.222539e-01) inserted so far.
WARNING: Particle insertion: Less insertions than requested (../fix_insert.cpp:814)
INFO: Particle insertion ins_acc: inserted 3 particle templates (mass 1.206372e-04) at step 598945
 - a total of 5530 particle templates (mass 2.223745e-01) inserted so far.
WARNING: Particle insertion: Less insertions than requested (../fix_insert.cpp:814)
INFO: Particle insertion ins_acc: inserted 4 particle templates (mass 1.608495e-04) at step 599353
 - a total of 5534 particle templates (mass 2.225353e-01) inserted so far.
WARNING: Particle insertion: Less insertions than requested (../fix_insert.cpp:814)
INFO: Particle insertion ins_acc: inserted 4 particle templates (mass 1.608495e-04) at step 599761
 - a total of 5538 particle templates (mass 2.226962e-01) inserted so far.
WARNING: Particle insertion: Less insertions than requested (../fix_insert.cpp:814)
  600001     9450     0.13624576      11144.841 
Loop time of 11144.8 on 6 procs for 300000 steps with 9450 atoms, finish time Sat Apr  1 20:18:40 2023


Pair  time (%) = 174.811 (1.56853)
Neigh time (%) = 349.227 (3.13353)
Comm  time (%) = 1772.51 (15.9043)
Outpt time (%) = 49.1619 (0.441118)
Other time (%) = 8799.13 (78.9525)

Nlocal:    1575 ave 4994 max 0 min
Histogram: 4 0 0 0 0 0 0 0 1 1
Nghost:    161.667 ave 471 max 0 min
Histogram: 4 0 0 0 0 0 0 0 0 2
Neighs:    7007 ave 22172 max 0 min
Histogram: 4 0 0 0 0 0 0 0 1 1

Total # of neighbors = 42042
Ave neighs/atom = 4.44889
Neighbor list builds = 174338
Dangerous builds = 139202

unfix	Movescrew
unfix	Movescrew_inv

write_restart resrart/reactor.restart

