LIGGGHTS (Version LIGGGHTS-PUBLIC 3.8.0, compiled 2023-03-15-17:42:14 by weitinglinux, git commit 9fb7f67592be9304afca9cb6840892b3b7d048d6)
###Header for General commands###

#Simulation of particles
atom_style	granular
boundary	f f f			        #fixed boundaries -> particles will be deleted if leaving the simulation box
units		si
communicate	single vel yes	#default

newton		off				#default

###System variables###

#Definition of boundaries [m]
variable xmin equal -0.15
variable xmax equal 0.15

variable ymin equal -0.3
variable ymax equal 0.3

variable zmin equal -0.3
variable zmax equal 0.5

#Definition of the timestep
#timestep = 0.0001 second; Each iteration step represents 0.0001 seconds.
variable dt equal 2e-4


###Specific variables for current simulation####

variable natoms equal 2 	        #1 -> particle #2->funnel, screw, and screw_inv

#Variable for material properties#

#Young Modulus
#soft_particles yes
variable	youngModulusCon 	equal 	5e6	#N/mm² (30 to 50Gpa)
variable	youngModulus    	equal 	5e6	#N/mm² (30 to 50Gpa)

variable	youngModulusAcc 	equal 	2e4	#N/mm² (10Gpa)

#Poission ratio
variable 	poissionCon1	equal	0.3
variable 	poissionCon2	equal	0.3
variable 	poissionAcc	equal	0.25

#variable for contact properties#

#coefficient of restitution
variable	CoR11	equal	0.6
variable	CoR12	equal	0.6
variable	CoR21	equal	0.6
variable	CoR22	equal	0.6

#sliding friction coefficient
variable	sf11	equal	0.5
variable	sf12	equal	0.5
variable	sf21	equal	0.5
variable	sf22	equal	0.5

#rolling friction coefficient
variable	rf11	equal	0.05
variable	rf12	equal	0.05
variable	rf21	equal	0.05
variable	rf22	equal	0.05


#Variable for particle##

#Number of particle radius
variable	nradii	equal	2

#Concrete particles

variable	radiusCon1	equal	0.004	#m Fine aggregates
variable	radiusCon2	equal	0.008	#m Coarse aggregates

variable	frac1	        equal	0.6		#70%
variable	frac2	        equal	0.4		#30%

variable	densityCon	equal	2700	        #kg/m³ #aggregate desnsity


#Accelerator particles

variable	radiusAcc	equal	0.002	        #m
variable	densityAcc	equal	1200	        #kg/m³

#filling parameters#

##define the flowrate
variable        timeFactor	equal	10.0				#60 seconds
variable        filltime	equal	20.0				#60 seconds
variable        fillVoulume     equal   3                             	#Liter

#fill concrete
variable	fillmass	equal	${densityCon}*(${fillVoulume}/1000)	#kg
variable	fillmass	equal	2700*(${fillVoulume}/1000)	
variable	fillmass	equal	2700*(3/1000)	
variable	fillmassrate	equal	${fillmass}/${filltime}	                #kg/s
variable	fillmassrate	equal	8.1/${filltime}	                
variable	fillmassrate	equal	8.1/20	                

#fill accelertor
variable        factor          equal   0.05
variable	fillmassAcc	equal	${densityAcc}*${fillmass}*${factor}     #kg
variable	fillmassAcc	equal	1200*${fillmass}*${factor}     
variable	fillmassAcc	equal	1200*8.1*${factor}     
variable	fillmassAcc	equal	1200*8.1*0.05     
variable	fillmassrateAcc	equal	${fillmassAcc}/${filltime}	        #kg
variable	fillmassrateAcc	equal	486/${filltime}	        
variable	fillmassrateAcc	equal	486/20	        
#Transform time to iteration steps
variable	fillsteps	equal	${filltime}/${dt}
variable	fillsteps	equal	20/${dt}
variable	fillsteps	equal	20/0.0002


## define the speed
# rpm = roataion per minute
# ex. 60 rpm = 60 rev/min = 1 rev/s
variable        screwSpeed      equal   80.0                             #rpm
variable        screwPeriod     equal   ${screwSpeed}/60.0               #s/rev ,period of the srew rotation (time for 1 rotation)
variable        screwPeriod     equal   80/60.0               



####settle time####
variable	settletime	equal	1.0                             #second
variable	settlesteps	equal	${settletime}/${dt}		#Transform time to iteration steps
variable	settlesteps	equal	1/${dt}		
variable	settlesteps	equal	1/0.0002		


####mixing time####
variable	mixingTime	equal	30.0                            #sec
variable	mixingSteps	equal	${mixingTime}/${dt}		#Transform time to iteration steps
variable	mixingSteps	equal	30/${dt}		
variable	mixingSteps	equal	30/0.0002		


####Definition of simulationbox####
region		domain block ${xmin} ${xmax} ${ymin} ${ymax} ${zmin} ${zmax} units box
region		domain block -0.15 ${xmax} ${ymin} ${ymax} ${zmin} ${zmax} units box
region		domain block -0.15 0.15 ${ymin} ${ymax} ${zmin} ${zmax} units box
region		domain block -0.15 0.15 -0.3 ${ymax} ${zmin} ${zmax} units box
region		domain block -0.15 0.15 -0.3 0.3 ${zmin} ${zmax} units box
region		domain block -0.15 0.15 -0.3 0.3 -0.3 ${zmax} units box
region		domain block -0.15 0.15 -0.3 0.3 -0.3 0.5 units box
create_box	2 domain
Created orthogonal box = (-0.15 -0.3 -0.3) to (0.15 0.3 0.5)
  1 by 1 by 3 MPI processor grid
neighbor	0.016 bin		# 2x of particle radius may be good
neigh_modify	delay 0		        #default


####Definition of the contact models####

pair_style gran model hertz tangential history rolling_friction epsd2	#contact model
WARNING: 
	The contact model you specified is not located in any whitelist.
	Because of this the model will be run in an unoptimized version (increasing runtime by up to 20%).
	In order to optimize this model you have the following options:
		(i)  Run the genAutoExamplesWhitelist.sh script in your LIGGGHTS(R) source folder to automatically parse the input script
		(ii) Add the model combination by hand to your style_contact_model_user.whitelist that can be found in your LIGGGHTS(R) source folder
		(iii) Use the ENABLE_MODEL_* flag when building with cmake.
	If you perform one of the steps above LIGGGHTS(R) needs to be recompiled to generate the optimized code.

 (../contact_models.h:365)
pair_coeff * * 								#default

timestep ${dt}
timestep 0.0002

fix	integrator all nve/sphere			#default
fix	gravi all gravity 9.81 vector 0.0 0.0 -1.0	#gravity of 9.81 m/s² in negative z direction



###efinition of Material properties####

fix 	m1 all property/global youngsModulus peratomtype ${youngModulusCon} ${youngModulus}
fix 	m1 all property/global youngsModulus peratomtype 5000000 ${youngModulus}
fix 	m1 all property/global youngsModulus peratomtype 5000000 5000000
fix 	m2 all property/global poissonsRatio peratomtype ${poissionCon1} ${poissionAcc}
fix 	m2 all property/global poissonsRatio peratomtype 0.3 ${poissionAcc}
fix 	m2 all property/global poissonsRatio peratomtype 0.3 0.25
fix 	m3 all property/global coefficientRestitution peratomtypepair ${natoms} ${CoR11} ${CoR12} ${CoR21} ${CoR22}
fix 	m3 all property/global coefficientRestitution peratomtypepair 2 ${CoR11} ${CoR12} ${CoR21} ${CoR22}
fix 	m3 all property/global coefficientRestitution peratomtypepair 2 0.6 ${CoR12} ${CoR21} ${CoR22}
fix 	m3 all property/global coefficientRestitution peratomtypepair 2 0.6 0.6 ${CoR21} ${CoR22}
fix 	m3 all property/global coefficientRestitution peratomtypepair 2 0.6 0.6 0.6 ${CoR22}
fix 	m3 all property/global coefficientRestitution peratomtypepair 2 0.6 0.6 0.6 0.6
fix 	m4 all property/global coefficientFriction peratomtypepair ${natoms} ${sf11} ${sf12} ${sf21} ${sf22}
fix 	m4 all property/global coefficientFriction peratomtypepair 2 ${sf11} ${sf12} ${sf21} ${sf22}
fix 	m4 all property/global coefficientFriction peratomtypepair 2 0.5 ${sf12} ${sf21} ${sf22}
fix 	m4 all property/global coefficientFriction peratomtypepair 2 0.5 0.5 ${sf21} ${sf22}
fix 	m4 all property/global coefficientFriction peratomtypepair 2 0.5 0.5 0.5 ${sf22}
fix 	m4 all property/global coefficientFriction peratomtypepair 2 0.5 0.5 0.5 0.5
fix 	m5 all property/global coefficientRollingFriction peratomtypepair ${natoms} ${rf11} ${rf12} ${rf21} ${rf22}
fix 	m5 all property/global coefficientRollingFriction peratomtypepair 2 ${rf11} ${rf12} ${rf21} ${rf22}
fix 	m5 all property/global coefficientRollingFriction peratomtypepair 2 0.05 ${rf12} ${rf21} ${rf22}
fix 	m5 all property/global coefficientRollingFriction peratomtypepair 2 0.05 0.05 ${rf21} ${rf22}
fix 	m5 all property/global coefficientRollingFriction peratomtypepair 2 0.05 0.05 0.05 ${rf22}
fix 	m5 all property/global coefficientRollingFriction peratomtypepair 2 0.05 0.05 0.05 0.05


###Generation and Loading of the Geometry####

#load mesh from STL file. Type 2 for geometry. Scale down to transform mm to meters
fix	funnel 		all mesh/surface file meshes/funnel.stl type 2 scale 0.001

fix	screw 		all mesh/surface file meshes/impeller_1.stl type 2 scale 0.001 curvature 1e-5 curvature_tolerant yes
fix	screw_inv 	all mesh/surface file meshes/impeller_inver_2.stl type 2 scale 0.001 curvature 1e-5 curvature_tolerant yes

fix	walls 		all wall/gran model hertz tangential history rolling_friction epsd2 mesh n_meshes 3 meshes funnel screw screw_inv
WARNING: 
	The contact model you specified is not located in any whitelist.
	Because of this the model will be run in an unoptimized version (increasing runtime by up to 20%).
	In order to optimize this model you have the following options:
		(i)  Run the genAutoExamplesWhitelist.sh script in your LIGGGHTS(R) source folder to automatically parse the input script
		(ii) Add the model combination by hand to your style_contact_model_user.whitelist that can be found in your LIGGGHTS(R) source folder
		(iii) Use the ENABLE_MODEL_* flag when building with cmake.
	If you perform one of the steps above LIGGGHTS(R) needs to be recompiled to generate the optimized code.

 (../contact_models.h:365)



####Generation and Insertion of the particles####

fix	pts1 all particletemplate/sphere 10487 atom_type 1 density constant ${densityCon} radius constant ${radiusCon1}
fix	pts1 all particletemplate/sphere 10487 atom_type 1 density constant 2700 radius constant ${radiusCon1}
fix	pts1 all particletemplate/sphere 10487 atom_type 1 density constant 2700 radius constant 0.004
#fix	pts2 all particletemplate/sphere 11887 atom_type 1 density constant ${densityCon} radius constant ${radiusCon2}

fix	pts3 all particletemplate/sphere 10487 atom_type 1 density constant ${densityAcc} radius constant ${radiusAcc}
fix	pts3 all particletemplate/sphere 10487 atom_type 1 density constant 1200 radius constant ${radiusAcc}
fix	pts3 all particletemplate/sphere 10487 atom_type 1 density constant 1200 radius constant 0.002

#fix 	pdd1 all particledistribution/discrete 32452867 2 pts1 ${frac1} pts2 ${frac2}
fix 	pdd1 all particledistribution/discrete 32452867 1 pts1 1.0

fix 	pdd2 all particledistribution/discrete 32452843 1 pts3 1.0

fix	ins_mesh_con all mesh/surface/planar file meshes/insertion_con_simple_top.stl  type 1 scale 0.001
fix	ins_mesh_acc all mesh/surface/planar file meshes/insertion_acc.stl  type 1 scale 0.001

fix 	ins_con all insert/stream seed 86028121 distributiontemplate pdd1         mass ${fillmass} massrate ${fillmassrate} overlapcheck yes all_in yes vel constant  0  0 -0.15         insertion_face ins_mesh_con extrude_length 0.08
fix 	ins_con all insert/stream seed 86028121 distributiontemplate pdd1         mass 8.1 massrate ${fillmassrate} overlapcheck yes all_in yes vel constant  0  0 -0.15         insertion_face ins_mesh_con extrude_length 0.08
fix 	ins_con all insert/stream seed 86028121 distributiontemplate pdd1         mass 8.1 massrate 0.405 overlapcheck yes all_in yes vel constant  0  0 -0.15         insertion_face ins_mesh_con extrude_length 0.08

fix 	ins_acc all insert/stream seed 86028121 distributiontemplate pdd2         mass ${fillmassAcc} massrate ${fillmassrateAcc} overlapcheck yes all_in yes vel constant 0.12 0.12  0          insertion_face ins_mesh_acc extrude_length 0.02
fix 	ins_acc all insert/stream seed 86028121 distributiontemplate pdd2         mass 486 massrate ${fillmassrateAcc} overlapcheck yes all_in yes vel constant 0.12 0.12  0          insertion_face ins_mesh_acc extrude_length 0.02
fix 	ins_acc all insert/stream seed 86028121 distributiontemplate pdd2         mass 486 massrate 24.3 overlapcheck yes all_in yes vel constant 0.12 0.12  0          insertion_face ins_mesh_acc extrude_length 0.02



####Dumping of the data for post-processing to visualize####

shell	rmdir post
shell 	mkdir post
shell   mkdir simu

#Definition of the dumptime

variable dumptime equal 0.05	                        # Every 0.05 s 1 image
variable dumpstep equal ${dumptime}/${dt}	        #Transform to iteration steps
variable dumpstep equal 0.05/${dt}	        
variable dumpstep equal 0.05/0.0002	        


####Run####

#Run simulation iteration==1 and dump the file
run    	1
Setting up run at Thu Mar 30 13:24:10 2023

WARNING: Fix mesh: Mesh contains highly skewed element, moving mesh (if used) will not parallelize well (../surface_mesh_I.h:657)
WARNING: Fix mesh: Mesh contains highly skewed element, moving mesh (if used) will not parallelize well (../surface_mesh_I.h:657)
INFO: Particle insertion ins_con: 298.340914 particles every 2666 steps - particle rate 559.529097, (mass rate 4.050000e-01)
      11190 particles (mass 8.099579e+00) within 98642 steps
INFO: Particle insertion ins_acc: 75778.144639 particles every 627 steps - particle rate 604291.424552, (mass rate 2.430000e+01)
      12085828 particles (mass 4.860000e+02) within 99693 steps
Memory usage per processor = 14.1315 Mbytes
    Step    Atoms         KinEng            CPU 
       0        0              0              0 
INFO: Particle insertion ins_con: inserted 106 particle templates (mass 7.672523e-02) at step 1
 - a total of 106 particle templates (mass 7.672523e-02) inserted so far.
WARNING: Particle insertion: Less insertions than requested (../fix_insert.cpp:814)
INFO: Particle insertion ins_acc: inserted 5 particle templates (mass 2.010619e-04) at step 1
 - a total of 5 particle templates (mass 2.010619e-04) inserted so far.
WARNING: Particle insertion: Less insertions than requested (../fix_insert.cpp:814)
       1      111  0.00086571547      15.639768 
Loop time of 15.6398 on 3 procs for 1 steps with 111 atoms, finish time Thu Mar 30 13:24:26 2023


Pair  time (%) = 1.0416e-05 (6.65994e-05)
Neigh time (%) = 0.000102316 (0.000654205)
Comm  time (%) = 0.000979811 (0.00626486)
Outpt time (%) = 0.00118692 (0.0075891)
Other time (%) = 15.6375 (99.9854)

Nlocal:    37 ave 106 max 0 min
Histogram: 2 0 0 0 0 0 0 0 0 1
Nghost:    11 ave 33 max 0 min
Histogram: 2 0 0 0 0 0 0 0 0 1
Neighs:    593 ave 1769 max 0 min
Histogram: 2 0 0 0 0 0 0 0 0 1

Total # of neighbors = 1779
Ave neighs/atom = 16.027
Neighbor list builds = 1
Dangerous builds = 0
dump   	dmpparticle all custom/vtk ${dumpstep} post/particles_*.vtk id type type x y z ix iy iz vx vy vz fx fy fz omegax omegay omegaz radius
dump   	dmpparticle all custom/vtk 250 post/particles_*.vtk id type type x y z ix iy iz vx vy vz fx fy fz omegax omegay omegaz radius
dump   	dumpfunnel all mesh/stl ${dumpstep} post/funnel*.stl funnel
dump   	dumpfunnel all mesh/stl 250 post/funnel*.stl funnel
dump	dumpscrew all mesh/stl ${dumpstep} post/screw*.stl screw screw_inv
dump	dumpscrew all mesh/stl 250 post/screw*.stl screw screw_inv

#Run simulation

run     ${fillsteps}
run     100000
Setting up run at Thu Mar 30 13:24:26 2023

Memory usage per processor = 14.1315 Mbytes
    Step    Atoms         KinEng            CPU 
       1      111  0.00086571547              0 
INFO: Particle insertion ins_acc: inserted 4 particle templates (mass 1.608495e-04) at step 628
 - a total of 9 particle templates (mass 3.619115e-04) inserted so far.
WARNING: Particle insertion: Less insertions than requested (../fix_insert.cpp:814)
INFO: Particle insertion ins_acc: inserted 3 particle templates (mass 1.206372e-04) at step 1255
 - a total of 12 particle templates (mass 4.825486e-04) inserted so far.
WARNING: Particle insertion: Less insertions than requested (../fix_insert.cpp:814)
INFO: Particle insertion ins_acc: inserted 5 particle templates (mass 2.010619e-04) at step 1882
 - a total of 17 particle templates (mass 6.836106e-04) inserted so far.
WARNING: Particle insertion: Less insertions than requested (../fix_insert.cpp:814)
INFO: Particle insertion ins_acc: inserted 4 particle templates (mass 1.608495e-04) at step 2509
 - a total of 21 particle templates (mass 8.444601e-04) inserted so far.
WARNING: Particle insertion: Less insertions than requested (../fix_insert.cpp:814)
INFO: Particle insertion ins_con: inserted 100 particle templates (mass 7.238229e-02) at step 2667
 - a total of 206 particle templates (mass 1.491075e-01) inserted so far.
WARNING: Particle insertion: Less insertions than requested (../fix_insert.cpp:814)
INFO: Particle insertion ins_acc: inserted 3 particle templates (mass 1.206372e-04) at step 3136
 - a total of 24 particle templates (mass 9.650973e-04) inserted so far.
WARNING: Particle insertion: Less insertions than requested (../fix_insert.cpp:814)
INFO: Particle insertion ins_acc: inserted 4 particle templates (mass 1.608495e-04) at step 3763
 - a total of 28 particle templates (mass 1.125947e-03) inserted so far.
WARNING: Particle insertion: Less insertions than requested (../fix_insert.cpp:814)
INFO: Particle insertion ins_acc: inserted 4 particle templates (mass 1.608495e-04) at step 4390
 - a total of 32 particle templates (mass 1.286796e-03) inserted so far.
WARNING: Particle insertion: Less insertions than requested (../fix_insert.cpp:814)
INFO: Particle insertion ins_acc: inserted 3 particle templates (mass 1.206372e-04) at step 5017
 - a total of 35 particle templates (mass 1.407434e-03) inserted so far.
WARNING: Particle insertion: Less insertions than requested (../fix_insert.cpp:814)
INFO: Particle insertion ins_con: inserted 104 particle templates (mass 7.527759e-02) at step 5333
 - a total of 310 particle templates (mass 2.243851e-01) inserted so far.
WARNING: Particle insertion: Less insertions than requested (../fix_insert.cpp:814)
INFO: Particle insertion ins_acc: inserted 4 particle templates (mass 1.608495e-04) at step 5644
 - a total of 39 particle templates (mass 1.568283e-03) inserted so far.
WARNING: Particle insertion: Less insertions than requested (../fix_insert.cpp:814)
INFO: Particle insertion ins_acc: inserted 4 particle templates (mass 1.608495e-04) at step 6271
 - a total of 43 particle templates (mass 1.729133e-03) inserted so far.
WARNING: Particle insertion: Less insertions than requested (../fix_insert.cpp:814)
INFO: Particle insertion ins_acc: inserted 4 particle templates (mass 1.608495e-04) at step 6898
 - a total of 47 particle templates (mass 1.889982e-03) inserted so far.
WARNING: Particle insertion: Less insertions than requested (../fix_insert.cpp:814)
INFO: Particle insertion ins_acc: inserted 4 particle templates (mass 1.608495e-04) at step 7525
 - a total of 51 particle templates (mass 2.050832e-03) inserted so far.
WARNING: Particle insertion: Less insertions than requested (../fix_insert.cpp:814)
INFO: Particle insertion ins_con: inserted 104 particle templates (mass 7.527759e-02) at step 7999
 - a total of 414 particle templates (mass 2.996627e-01) inserted so far.
WARNING: Particle insertion: Less insertions than requested (../fix_insert.cpp:814)
INFO: Particle insertion ins_acc: inserted 4 particle templates (mass 1.608495e-04) at step 8152
 - a total of 55 particle templates (mass 2.211681e-03) inserted so far.
WARNING: Particle insertion: Less insertions than requested (../fix_insert.cpp:814)
INFO: Particle insertion ins_acc: inserted 4 particle templates (mass 1.608495e-04) at step 8779
 - a total of 59 particle templates (mass 2.372531e-03) inserted so far.
WARNING: Particle insertion: Less insertions than requested (../fix_insert.cpp:814)
INFO: Particle insertion ins_acc: inserted 4 particle templates (mass 1.608495e-04) at step 9406
 - a total of 63 particle templates (mass 2.533380e-03) inserted so far.
WARNING: Particle insertion: Less insertions than requested (../fix_insert.cpp:814)
INFO: Particle insertion ins_acc: inserted 4 particle templates (mass 1.608495e-04) at step 10033
 - a total of 67 particle templates (mass 2.694230e-03) inserted so far.
WARNING: Particle insertion: Less insertions than requested (../fix_insert.cpp:814)
INFO: Particle insertion ins_acc: inserted 4 particle templates (mass 1.608495e-04) at step 10660
 - a total of 71 particle templates (mass 2.855079e-03) inserted so far.
WARNING: Particle insertion: Less insertions than requested (../fix_insert.cpp:814)
INFO: Particle insertion ins_con: inserted 105 particle templates (mass 7.600141e-02) at step 10665
 - a total of 519 particle templates (mass 3.756641e-01) inserted so far.
WARNING: Particle insertion: Less insertions than requested (../fix_insert.cpp:814)
INFO: Particle insertion ins_acc: inserted 4 particle templates (mass 1.608495e-04) at step 11287
 - a total of 75 particle templates (mass 3.015929e-03) inserted so far.
WARNING: Particle insertion: Less insertions than requested (../fix_insert.cpp:814)
INFO: Particle insertion ins_acc: inserted 4 particle templates (mass 1.608495e-04) at step 11914
 - a total of 79 particle templates (mass 3.176778e-03) inserted so far.
WARNING: Particle insertion: Less insertions than requested (../fix_insert.cpp:814)
INFO: Particle insertion ins_acc: inserted 4 particle templates (mass 1.608495e-04) at step 12541
 - a total of 83 particle templates (mass 3.337628e-03) inserted so far.
WARNING: Particle insertion: Less insertions than requested (../fix_insert.cpp:814)
INFO: Particle insertion ins_acc: inserted 3 particle templates (mass 1.206372e-04) at step 13168
 - a total of 86 particle templates (mass 3.458265e-03) inserted so far.
WARNING: Particle insertion: Less insertions than requested (../fix_insert.cpp:814)
INFO: Particle insertion ins_con: inserted 105 particle templates (mass 7.600141e-02) at step 13331
 - a total of 624 particle templates (mass 4.516655e-01) inserted so far.
WARNING: Particle insertion: Less insertions than requested (../fix_insert.cpp:814)
INFO: Particle insertion ins_acc: inserted 4 particle templates (mass 1.608495e-04) at step 13795
 - a total of 90 particle templates (mass 3.619115e-03) inserted so far.
WARNING: Particle insertion: Less insertions than requested (../fix_insert.cpp:814)
INFO: Particle insertion ins_acc: inserted 3 particle templates (mass 1.206372e-04) at step 14422
 - a total of 93 particle templates (mass 3.739752e-03) inserted so far.
WARNING: Particle insertion: Less insertions than requested (../fix_insert.cpp:814)
INFO: Particle insertion ins_acc: inserted 4 particle templates (mass 1.608495e-04) at step 15049
 - a total of 97 particle templates (mass 3.900601e-03) inserted so far.
WARNING: Particle insertion: Less insertions than requested (../fix_insert.cpp:814)
INFO: Particle inserti