LIGGGHTS (Version LIGGGHTS-PUBLIC 3.8.0, compiled 2023-03-15-17:42:14 by weitinglinux, git commit 9fb7f67592be9304afca9cb6840892b3b7d048d6)
###Header for General commands###

#Simulation of particles
atom_style	granular
boundary	f f f			        #fixed boundaries -> particles will be deleted if leaving the simulation box
units		si
communicate	single vel yes	#default

newton		off				#default

###System variables###

#Definition of boundaries [m]
variable xmin equal -0.2
variable xmax equal 0.2

variable ymin equal -0.3
variable ymax equal 0.3

variable zmin equal -0.3
variable zmax equal 0.5

#Definition of the timestep
#timestep = 0.0001 second; Each iteration step represents 0.0001 seconds.
variable dt equal 1e-4


###Specific variables for current simulation####

variable natoms equal 2 	        #1 -> particle #2->funnel, screw, and screw_inv

#Variable for material properties#

#Young Modulus
#soft_particles yes
variable	youngModulusCon 	equal 	5e6	#N/mm² (30 to 50Gpa)
variable	youngModulus    	equal 	5e6	#N/mm² (30 to 50Gpa)

variable	youngModulusAcc 	equal 	2e4	#N/mm² (10Gpa)

#Poission ratio
variable 	poissionCon1	equal	0.3
variable 	poissionCon2	equal	0.3
variable 	poissionAcc	equal	0.25

#variable for contact properties#

#coefficient of restitution
variable	CoR11	equal	0.6
variable	CoR12	equal	0.6
variable	CoR21	equal	0.6
variable	CoR22	equal	0.6

#sliding friction coefficient
variable	sf11	equal	0.5
variable	sf12	equal	0.5
variable	sf21	equal	0.5
variable	sf22	equal	0.5

#rolling friction coefficient
variable	rf11	equal	0.05
variable	rf12	equal	0.05
variable	rf21	equal	0.05
variable	rf22	equal	0.05


#Variable for particle##

#Number of particle radius
variable	nradii	equal	2

#Concrete particles

variable	radiusCon1	equal	0.004	#m Fine aggregates
variable	radiusCon2	equal	0.008	#m Coarse aggregates

variable	frac1	        equal	0.7		#70%
variable	frac2	        equal	0.3		#30%

variable	densityCon	equal	2700	        #kg/m³ #aggregate desnsity


#Accelerator particles

variable	radiusAcc	equal	0.002	        #m
variable	densityAcc	equal	1200	        #kg/m³

#filling parameters#

##define the flowrate
variable        timeFactor	equal	10.0				#seconds
variable        filltime	equal	10.0				#seconds
variable        fillVoulume     equal   2.5                               #Liter

#fill concrete
variable	fillmass	equal	${densityCon}*(${fillVoulume}/1000)	#kg
variable	fillmass	equal	2700*(${fillVoulume}/1000)	
variable	fillmass	equal	2700*(2.5/1000)	
variable	fillmassrate	equal	${fillmass}/${filltime}	                #kg/s
variable	fillmassrate	equal	6.75/${filltime}	                
variable	fillmassrate	equal	6.75/10	                

#fill concrete
variable        factor          equal   0.05
variable	fillmassAcc	equal	${densityAcc}*${fillmass}*${factor}  #kg
variable	fillmassAcc	equal	1200*${fillmass}*${factor}  
variable	fillmassAcc	equal	1200*6.75*${factor}  
variable	fillmassAcc	equal	1200*6.75*0.05  
variable	fillmassrateAcc	equal	${fillmassAcc}/${filltime}	        #kg
variable	fillmassrateAcc	equal	405/${filltime}	        
variable	fillmassrateAcc	equal	405/10	        

variable	fillsteps	equal	${filltime}/${dt}		#Transform time to iteration steps
variable	fillsteps	equal	10/${dt}		
variable	fillsteps	equal	10/0.0001		

## define the speed
# rpm = roataion per minute
# ex. 60 rpm = 60 rev/min = 1 rev/s
variable        screwSpeed      equal   60.0                             #rpm
variable        screwPeriod     equal   ${screwSpeed}/60.0               #s/rev ,period of the srew rotation (time for 1 rotation)
variable        screwPeriod     equal   60/60.0               



####settle time####
variable	settletime	equal	1.0                             #second
variable	settlesteps	equal	${settletime}/${dt}		#Transform time to iteration steps
variable	settlesteps	equal	1/${dt}		
variable	settlesteps	equal	1/0.0001		


####mixing time####
variable	mixingTime	equal	15.0                              #sec
variable	mixingSteps	equal	${mixingTime}/${dt}		#Transform time to iteration steps
variable	mixingSteps	equal	15/${dt}		
variable	mixingSteps	equal	15/0.0001		


####Definition of simulationbox####
region		reg block ${xmin} ${xmax} ${ymin} ${ymax} ${zmin} ${zmax} units box
region		reg block -0.2 ${xmax} ${ymin} ${ymax} ${zmin} ${zmax} units box
region		reg block -0.2 0.2 ${ymin} ${ymax} ${zmin} ${zmax} units box
region		reg block -0.2 0.2 -0.3 ${ymax} ${zmin} ${zmax} units box
region		reg block -0.2 0.2 -0.3 0.3 ${zmin} ${zmax} units box
region		reg block -0.2 0.2 -0.3 0.3 -0.3 ${zmax} units box
region		reg block -0.2 0.2 -0.3 0.3 -0.3 0.5 units box
create_box	2 reg
Created orthogonal box = (-0.2 -0.3 -0.3) to (0.2 0.3 0.5)
  1 by 1 by 3 MPI processor grid
neighbor	0.002 bin		#default
neigh_modify	delay 0		        #default


####Definition of the contact models####

pair_style gran model hertz tangential history rolling_friction epsd2	#contact model
WARNING: 
	The contact model you specified is not located in any whitelist.
	Because of this the model will be run in an unoptimized version (increasing runtime by up to 20%).
	In order to optimize this model you have the following options:
		(i)  Run the genAutoExamplesWhitelist.sh script in your LIGGGHTS(R) source folder to automatically parse the input script
		(ii) Add the model combination by hand to your style_contact_model_user.whitelist that can be found in your LIGGGHTS(R) source folder
		(iii) Use the ENABLE_MODEL_* flag when building with cmake.
	If you perform one of the steps above LIGGGHTS(R) needs to be recompiled to generate the optimized code.

 (../contact_models.h:365)
pair_coeff	* *				#default
timestep ${dt}
timestep 0.0001

fix	integrator all nve/sphere			#default
fix	gravi all gravity 9.81 vector 0.0 0.0 -1.0	#gravity of 9.81 m/s² in negative z direction



###efinition of Material properties####

fix 	m1 all property/global youngsModulus peratomtype ${youngModulusCon} ${youngModulus}
fix 	m1 all property/global youngsModulus peratomtype 5000000 ${youngModulus}
fix 	m1 all property/global youngsModulus peratomtype 5000000 5000000
fix 	m2 all property/global poissonsRatio peratomtype ${poissionCon1} ${poissionAcc}
fix 	m2 all property/global poissonsRatio peratomtype 0.3 ${poissionAcc}
fix 	m2 all property/global poissonsRatio peratomtype 0.3 0.25
fix 	m3 all property/global coefficientRestitution peratomtypepair ${natoms} ${CoR11} ${CoR12} ${CoR21} ${CoR22}
fix 	m3 all property/global coefficientRestitution peratomtypepair 2 ${CoR11} ${CoR12} ${CoR21} ${CoR22}
fix 	m3 all property/global coefficientRestitution peratomtypepair 2 0.6 ${CoR12} ${CoR21} ${CoR22}
fix 	m3 all property/global coefficientRestitution peratomtypepair 2 0.6 0.6 ${CoR21} ${CoR22}
fix 	m3 all property/global coefficientRestitution peratomtypepair 2 0.6 0.6 0.6 ${CoR22}
fix 	m3 all property/global coefficientRestitution peratomtypepair 2 0.6 0.6 0.6 0.6
fix 	m4 all property/global coefficientFriction peratomtypepair ${natoms} ${sf11} ${sf12} ${sf21} ${sf22}
fix 	m4 all property/global coefficientFriction peratomtypepair 2 ${sf11} ${sf12} ${sf21} ${sf22}
fix 	m4 all property/global coefficientFriction peratomtypepair 2 0.5 ${sf12} ${sf21} ${sf22}
fix 	m4 all property/global coefficientFriction peratomtypepair 2 0.5 0.5 ${sf21} ${sf22}
fix 	m4 all property/global coefficientFriction peratomtypepair 2 0.5 0.5 0.5 ${sf22}
fix 	m4 all property/global coefficientFriction peratomtypepair 2 0.5 0.5 0.5 0.5
fix 	m5 all property/global coefficientRollingFriction peratomtypepair ${natoms} ${rf11} ${rf12} ${rf21} ${rf22}
fix 	m5 all property/global coefficientRollingFriction peratomtypepair 2 ${rf11} ${rf12} ${rf21} ${rf22}
fix 	m5 all property/global coefficientRollingFriction peratomtypepair 2 0.05 ${rf12} ${rf21} ${rf22}
fix 	m5 all property/global coefficientRollingFriction peratomtypepair 2 0.05 0.05 ${rf21} ${rf22}
fix 	m5 all property/global coefficientRollingFriction peratomtypepair 2 0.05 0.05 0.05 ${rf22}
fix 	m5 all property/global coefficientRollingFriction peratomtypepair 2 0.05 0.05 0.05 0.05


###Generation and Loading of the Geometry####

#load mesh from STL file. Type 2 for geometry. Scale down to transform mm to meters
fix	funnel 		all mesh/surface file meshes/funnel.stl type 2 scale 0.001

fix	screw 		all mesh/surface file meshes/impeller_hexical_1.stl type 2 scale 0.001 curvature 1e-5 curvature_tolerant yes
fix	screw_inv 	all mesh/surface file meshes/impeller_hexical_inver_2.stl type 2 scale 0.001 curvature 1e-5 curvature_tolerant yes

fix	walls 		all wall/gran model hertz tangential history rolling_friction epsd2 mesh n_meshes 3 meshes funnel screw screw_inv
WARNING: 
	The contact model you specified is not located in any whitelist.
	Because of this the model will be run in an unoptimized version (increasing runtime by up to 20%).
	In order to optimize this model you have the following options:
		(i)  Run the genAutoExamplesWhitelist.sh script in your LIGGGHTS(R) source folder to automatically parse the input script
		(ii) Add the model combination by hand to your style_contact_model_user.whitelist that can be found in your LIGGGHTS(R) source folder
		(iii) Use the ENABLE_MODEL_* flag when building with cmake.
	If you perform one of the steps above LIGGGHTS(R) needs to be recompiled to generate the optimized code.

 (../contact_models.h:365)



####Generation and Insertion of the particles####

fix	pts1 all particletemplate/sphere 10487 atom_type 1 density constant ${densityCon} radius constant ${radiusCon2}
fix	pts1 all particletemplate/sphere 10487 atom_type 1 density constant 2700 radius constant ${radiusCon2}
fix	pts1 all particletemplate/sphere 10487 atom_type 1 density constant 2700 radius constant 0.008
#fix	pts2 all particletemplate/sphere 11887 atom_type 1 density constant ${densityCon} radius constant ${radiusCon2}
fix	pts3 all particletemplate/sphere 10487 atom_type 1 density constant ${densityAcc} radius constant ${radiusAcc}
fix	pts3 all particletemplate/sphere 10487 atom_type 1 density constant 1200 radius constant ${radiusAcc}
fix	pts3 all particletemplate/sphere 10487 atom_type 1 density constant 1200 radius constant 0.002

#fix 	pdd1 all particledistribution/discrete 32452867 ${nradii} pts1 ${frac1} pts2 ${frac2}

fix 	pdd1 all particledistribution/discrete 32452867 1 pts1 1.0
fix 	pdd2 all particledistribution/discrete 32452843 1 pts3 1.0

fix	ins_mesh_con all mesh/surface/planar file meshes/insertion_con_simple_top.stl  type 1 scale 0.001
fix	ins_mesh_acc all mesh/surface/planar file meshes/insertion_acc.stl  type 1 scale 0.001

fix 	ins_con all insert/stream seed 86028121 distributiontemplate pdd1         mass ${fillmass} massrate ${fillmassrate} overlapcheck yes all_in yes vel constant  0  0 -0.5         insertion_face ins_mesh_con extrude_length 0.08
fix 	ins_con all insert/stream seed 86028121 distributiontemplate pdd1         mass 6.75 massrate ${fillmassrate} overlapcheck yes all_in yes vel constant  0  0 -0.5         insertion_face ins_mesh_con extrude_length 0.08
fix 	ins_con all insert/stream seed 86028121 distributiontemplate pdd1         mass 6.75 massrate 0.675 overlapcheck yes all_in yes vel constant  0  0 -0.5         insertion_face ins_mesh_con extrude_length 0.08

####Dumping of the data for post-processing to visualize####

shell 	mkdir post
shell   mkdir simu

#Definition of the dumptime

variable dumptime equal 0.05	                        # Every 0.05 s 1 image
variable dumpstep equal ${dumptime}/${dt}	        #Transform to iteration steps
variable dumpstep equal 0.05/${dt}	        
variable dumpstep equal 0.05/0.0001	        


####Run####

#Run simulation iteration==1 and dump the file
run    	1
Setting up run at Sat Mar 25 00:58:55 2023

INFO: Particle insertion ins_con: 18.650970 particles every 1600 steps - particle rate 116.568562, (mass rate 6.750000e-01)
      1165 particles (mass 6.746030e+00) within 99200 steps
Memory usage per processor = 14.4496 Mbytes
    Step    Atoms         KinEng            CPU 
       0        0              0              0 
INFO: Particle insertion ins_con: inserted 12 particle templates (mass 6.948700e-02) at step 1
 - a total of 12 particle templates (mass 6.948700e-02) inserted so far.
WARNING: Particle insertion: Less insertions than requested (../fix_insert.cpp:814)
       1       12   0.0086858754    0.010677498 
Loop time of 0.0106893 on 3 procs for 1 steps with 12 atoms, finish time Sat Mar 25 00:59:00 2023


Pair  time (%) = 2.742e-06 (0.0256519)
Neigh time (%) = 0.000104168 (0.974508)
Comm  time (%) = 0.00023432 (2.19211)
Outpt time (%) = 0.00055191 (5.16322)
Other time (%) = 0.00979611 (91.6445)

Nlocal:    4 ave 12 max 0 min
Histogram: 2 0 0 0 0 0 0 0 0 1
Nghost:    1 ave 3 max 0 min
Histogram: 2 0 0 0 0 0 0 0 0 1
Neighs:    2.66667 ave 8 max 0 min
Histogram: 2 0 0 0 0 0 0 0 0 1

Total # of neighbors = 8
Ave neighs/atom = 0.666667
Neighbor list builds = 1
Dangerous builds = 0
dump   	dmpparticle all custom/vtk ${dumpstep} post/particles_*.vtk id type type x y z ix iy iz vx vy vz fx fy fz omegax omegay omegaz radius
dump   	dmpparticle all custom/vtk 500 post/particles_*.vtk id type type x y z ix iy iz vx vy vz fx fy fz omegax omegay omegaz radius
dump   	dumpfunnel all mesh/stl ${dumpstep} post/funnel*.stl funnel
dump   	dumpfunnel all mesh/stl 500 post/funnel*.stl funnel
dump	dumpscrew all mesh/stl ${dumpstep} post/screw*.stl screw screw_inv
dump	dumpscrew all mesh/stl 500 post/screw*.stl screw screw_inv

#Run simulation
run     ${fillsteps}
run     100000
Setting up run at Sat Mar 25 00:59:00 2023

Memory usage per processor = 14.4496 Mbytes
    Step    Atoms         KinEng            CPU 
       1       12   0.0086858754              0 
INFO: Particle insertion ins_con: inserted 10 particle templates (mass 5.790584e-02) at step 1601
 - a total of 22 particle templates (mass 1.273928e-01) inserted so far.
WARNING: Particle insertion: Less insertions than requested (../fix_insert.cpp:814)
INFO: Particle insertion ins_con: inserted 12 particle templates (mass 6.948700e-02) at step 3201
 - a total of 34 particle templates (mass 1.968798e-01) inserted so far.
WARNING: Particle insertion: Less insertions than requested (../fix_insert.cpp:814)
INFO: Particle insertion ins_con: inserted 12 particle templates (mass 6.948700e-02) at step 4801
 - a total of 46 particle templates (mass 2.663668e-01) inserted so far.
WARNING: Particle insertion: Less insertions than requested (../fix_insert.cpp:814)
INFO: Particle insertion ins_con: inserted 11 particle templates (mass 6.369642e-02) at step 6401
 - a total of 57 particle templates (mass 3.300633e-01) inserted so far.
WARNING: Particle insertion: Less insertions than requested (../fix_insert.cpp:814)
INFO: Particle insertion ins_con: inserted 12 particle templates (mass 6.948700e-02) at step 8001
 - a total of 69 particle templates (mass 3.995503e-01) inserted so far.
WARNING: Particle insertion: Less insertions than requested (../fix_insert.cpp:814)
INFO: Particle insertion ins_con: inserted 9 particle templates (mass 5.211525e-02) at step 9601
 - a total of 78 particle templates (mass 4.516655e-01) inserted so far.
WARNING: Particle insertion: Less insertions than requested (../fix_insert.cpp:814)
INFO: Particle insertion ins_con: inserted 10 particle templates (mass 5.790584e-02) at step 11201
 - a total of 88 particle templates (mass 5.095714e-01) inserted so far.
WARNING: Particle insertion: Less insertions than requested (../fix_insert.cpp:814)
INFO: Particle insertion ins_con: inserted 13 particle templates (mass 7.527759e-02) at step 12801
 - a total of 101 particle templates (mass 5.848489e-01) inserted so far.
WARNING: Particle insertion: Less insertions than requested (../fix_insert.cpp:814)
INFO: Particle insertion ins_con: inserted 11 particle templates (mass 6.369642e-02) at step 14401
 - a total of 112 particle templates (mass 6.485454e-01) inserted so far.
WARNING: Particle insertion: Less insertions than requested (../fix_insert.cpp:814)
INFO: Particle insertion ins_con: inserted 10 particle templates (mass 5.790584e-02) at step 16001
 - a total of 122 particle templates (mass 7.064512e-01) inserted so far.
WARNING: Particle insertion: Less insertions than requested (../fix_insert.cpp:814)
INFO: Particle insertion ins_con: inserted 12 particle templates (mass 6.948700e-02) at step 17601
 - a total of 134 particle templates (mass 7.759382e-01) inserted so far.
WARNING: Particle insertion: Less insertions than requested (../fix_insert.cpp:814)
INFO: Particle insertion ins_con: inserted 14 particle templates (mass 8.106817e-02) at step 19201
 - a total of 148 particle templates (mass 8.570064e-01) inserted so far.
WARNING: Particle insertion: Less insertions than requested (../fix_insert.cpp:814)
INFO: Particle insertion ins_con: inserted 15 particle templates (mass 8.685875e-02) at step 20801
 - a total of 163 particle templates (mass 9.438651e-01) inserted so far.
WARNING: Particle insertion: Less insertions than requested (../fix_insert.cpp:814)
INFO: Particle insertion ins_con: inserted 12 particle templates (mass 6.948700e-02) at step 22401
 - a total of 175 particle templates (mass 1.013352e+00) inserted so far.
WARNING: Particle insertion: Less insertions than requested (../fix_insert.cpp:814)
INFO: Particle insertion ins_con: inserted 12 particle templates (mass 6.948700e-02) at step 24001
 - a total of 187 particle templates (mass 1.082839e+00) inserted so far.
WARNING: Particle insertion: Less insertions than requested (../fix_insert.cpp:814)
INFO: Particle insertion ins_con: inserted 11 particle templates (mass 6.369642e-02) at step 25601
 - a total of 198 particle templates (mass 1.146536e+00) inserted so far.
WARNING: Particle insertion: Less insertions than requested (../fix_insert.cpp:814)
INFO: Particle insertion ins_con: inserted 12 particle templates (mass 6.948700e-02) at step 27201
 - a total of 210 particle templates (mass 1.216023e+00) inserted so far.
WARNING: Particle insertion: Less insertions than requested (../fix_insert.cpp:814)
INFO: Particle insertion ins_con: inserted 13 particle templates (mass 7.527759e-02) at step 28801
 - a total of 223 particle templates (mass 1.291300e+00) inserted so far.
WARNING: Particle insertion: Less insertions than requested (../fix_insert.cpp:814)
INFO: Particle insertion ins_con: inserted 11 particle templates (mass 6.369642e-02) at step 30401
 - a total of 234 particle templates (mass 1.354997e+00) inserted so far.
WARNING: Particle insertion: Less insertions than requested (../fix_insert.cpp:814)
INFO: Particle insertion ins_con: inserted 12 particle templates (mass 6.948700e-02) at step 32001
 - a total of 246 particle templates (mass 1.424484e+00) inserted so far.
WARNING: Particle insertion: Less insertions than requested (../fix_insert.cpp:814)
INFO: Particle insertion ins_con: inserted 12 particle templates (mass 6.948700e-02) at step 33601
 - a total of 258 particle templates (mass 1.493971e+00) inserted so far.
WARNING: Particle insertion: Less insertions than requested (../fix_insert.cpp:814)
INFO: Particle insertion ins_con: inserted 12 particle templates (mass 6.948700e-02) at step 35201
 - a total of 270 particle templates (mass 1.563458e+00) inserted so far.
WARNING: Particle insertion: Less insertions than requested (../fix_insert.cpp:814)
INFO: Particle insertion ins_con: inserted 10 particle templates (mass 5.790584e-02) at step 36801
 - a total of 280 particle templates (mass 1.621363e+00) inserted so far.
WARNING: Particle insertion: Less insertions than requested (../fix_insert.cpp:814)
INFO: Particle insertion ins_con: inserted 11 particle templates (mass 6.369642e-02) at step 38401
 - a total of 291 particle templates (mass 1.685060e+00) inserted so far.
WARNING: Particle insertion: Less insertions than requested (../fix_insert.cpp:814)
INFO: Particle insertion ins_con: inserted 12 particle templates (mass 6.948700e-02) at step 40001
 - a total of 303 particle templates (mass 1.754547e+00) inserted so far.
WARNING: Particle insertion: Less insertions than requested (../fix_insert.cpp:814)
INFO: Particle insertion ins_con: inserted 13 particle templates (mass 7.527759e-02) at step 41601
 - a total of 316 particle templates (mass 1.829824e+00) inserted so far.
WARNING: Particle insertion: Less insertions than requested (../fix_insert.cpp:814)
INFO: Particle insertion ins_con: inserted 9 particle templates (mass 5.211525e-02) at step 43201
 - a total of 325 particle templates (mass 1.881940e+00) inserted so far.
WARNING: Particle insertion: Less insertions than requested (../fix_insert.cpp:814)
INFO: Particle insertion ins_con: inserted 12 particle templates (mass 6.948700e-02) at step 44801
 - a total of 337 particle templates (mass 1.951427e+00) inserted so far.
WARNING: Particle insertion: Less insertions than requested (../fix_insert.cpp:814)
INFO: Particle insertion ins_con: inserted 12 particle templates (mass 6.948700e-02) at step 46401
 - a total of 349 particle templates (mass 2.020914e+00) inserted so far.
WARNING: Particle insertion: Less insertions than requested (../fix_insert.cpp:814)
INFO: Particle insertion ins_con: inserted 10 particle templates (mass 5.790584e-02) at step 48001
 - a total of 359 particle templates (mass 2.078820e+00) inserted so far.
WARNING: Particle insertion: Less insertions than requested (../fix_insert.cpp:814)
INFO: Particle insertion ins_con: inserted 11 particle templates (mass 6.369642e-02) at step 49601
 - a total of 370 particle templates (mass 2.142516e+00) inserted so far.
WARNING: Particle insertion: Less insertions than requested (../fix_insert.cpp:814)
INFO: Particle insertion ins_con: inserted 12 particle templates (mass 6.948700e-02) at step 51201
 - a total of 382 particle templates (mass 2.212003e+00) inserted so far.
WARNING: Particle insertion: Less insertions than requested (../fix_insert.cpp:814)
INFO: Particle insertion ins_con: inserted 12 particle templates (mass 6.948700e-02) at step 52801
 - a total of 394 particle templates (mass 2.281490e+00) inserted so far.
WARNING: Particle insertion: Less insertions than requested (../fix_insert.cpp:814)
INFO: Particle insertion ins_con: inserted 11 particle templates (mass 6.369642e-02) at step 54401
 - a total of 405 particle templates (mass 2.345186e+00) inserted so far.
WARNING: Particle insertion: Less insertions than requested (../fix_insert.cpp:814)
INFO: Particle insertion ins_con: inserted 13 particle templates (mass 7.527759e-02) at step 56001
 - a total of 418 particle templates (mass 2.420464e+00) inserted so far.
WARNING: Particle insertion: Less insertions than requested (../fix_insert.cpp:814)
INFO: Particle insertion ins_con: inserted 11 particle templates (mass 6.369642e-02) at step 57601
 - a total of 429 particle templates (mass 2.484160e+00) inserted so far.
WARNING: Particle insertion: Less insertions than requested (../fix_insert.cpp:814)
INFO: Particle insertion ins_con: inserted 14 particle templates (mass 8.106817e-02) at step 59201
 - a total of 443 particle templates (mass 2.565229e+00) inserted so far.
WARNING: Particle insertion: Less insertions than requested (../fix_insert.cpp:814)
INFO: Particle insertion ins_con: inserted 9 particle templates (mass 5.211525e-02) at step 60801
 - a total of 452 particle templates (mass 2.617344e+00) inserted so far.
WARNING: Particle insertion: Less insertions than requested (../fix_insert.cpp:814)
INFO: Particle insertion ins_con: inserted 12 particle templates (mass 6.948700e-02) at step 62401
 - a total of 464 particle templates (mass 2.686831e+00) inserted so far.
WARNING: Particle insertion: Less insertions than requested (../fix_insert.cpp:814)
INFO: Particle insertion ins_con: inserted 10 particle templates (mass 5.790584e-02) at step 64001
 - a total of 474 particle templates (mass 2.744737e+00) inserted so far.
WARNING: Particle insertion: Less insertions than requested (../fix_insert.cpp:814)
INFO: Particle insertion ins_con: inserted 10 particle templates (mass 5.790584e-02) at step 65601
 - a total of 484 particle templates (mass 2.802642e+00) inserted so far.
WARNING: Particle insertion: Less insertions than requested (../fix_insert.cpp:814)
INFO: Particle insertion ins_con: inserted 10 particle templates (mass 5.790584e-02) at step 67201
 - a total of 494 particle templates (mass 2.860548e+00) inserted so far.
WARNING: Particle insertion: Less insertions than requested (../fix_insert.cpp:814)
INFO: Particle insertion ins_con: inserted 11 particle templates (mass 6.369642e-02) at step 68801
 - a total of 505 particle templates (mass 2.924245e+00) inserted so far.
WARNING: Particle insertion: Less insertions than requested (../fix_insert.cpp:814)
INFO: Particle insertion ins_con: inserted 11 particle templates (mass 6.369642e-02) at step 70401
 - a total of 516 particle templates (mass 2.987941e+00) inserted so far.
WARNING: Particle insertion: Less insertions than requested (../fix_insert.cpp:814)
INFO: Particle insertion ins_con: inserted 11 particle templates (mass 6.369642e-02) at step 72001
 - a total of 527 particle templates (mass 3.051638e+00) inserted so far.
WARNING: Particle insertion: Less insertions than requested (../fix_insert.cpp:814)
INFO: Particle insertion ins_con: inserted 13 particle templates (mass 7.527759e-02) at step 73601
 - a total of 540 particle templates (mass 3.126915e+00) inserted so far.
WARNING: Particle insertion: Less insertions than requested (../fix_insert.cpp:814)
INFO: Particle insertion ins_con: inserted 14 particle templates (mass 8.106817e-02) at step 75201
 - a total of 554 particle templates (mass 3.207983e+00) inserted so far.
WARNING: Particle insertion: Less insertions than requested (../fix_insert.cpp:814)
INFO: Particle insertion ins_con: inserted 13 particle templates (mass 7.527759e-02) at step 76801
 - a total of 567 particle templates (mass 3.283261e+00) inserted so far.
WARNING: Particle insertion: Less insertions than requested (../fix_insert.cpp:814)
INFO: Particle insertion ins_con: inserted 10 particle templates (mass 5.790584e-02) at step 78401
 - a total of 577 particle templates (mass 3.341167e+00) inserted so far.
WARNING: Particle insertion: Less insertions than requested (../fix_insert.cpp:814)
INFO: Particle insertion ins_con: inserted 10 particle templates (mass 5.790584e-02) at step 80001
 - a total of 587 particle templates (mass 3.399073e+00) inserted so far.
WARNING: Particle insertion: Less insertions than requested (../fix_insert.cpp:814)
INFO: Particle insertion ins_con: inserted 11 particle templates (mass 6.369642e-02) at step 81601
 - a total of 598 particle templates (mass 3.462769e+00) inserted so far.
WARNING: Particle insertion: Less insertions than requested (../fix_insert.cpp:814)
INFO: Particle insertion ins_con: inserted 9 particle templates (mass 5.211525e-02) at step 83201
 - a total of 607 particle templates (mass 3.514884e+00) inserted so far.
WARNING: Particle insertion: Less insertions than requested (../fix_insert.cpp:814)
INFO: Particle insertion ins_con: inserted 10 particle templates (mass 5.790584e-02) at step 84801
 - a total of 617 particle templates (mass 3.572790e+00) inserted so far.
WARNING: Particle insertion: Less insertions than requested (../fix_insert.cpp:814)
INFO: Particle insertion ins_con: inserted 14 particle templates (mass 8.106817e-02) at step 86401
 - a total of 631 particle templates (mass 3.653858e+00) inserted so far.
WARNING: Particle insertion: Less insertions than requested (../fix_insert.cpp:814)
INFO: Particle insertion ins_con: inserted 12 particle templates (mass 6.948700e-02) at step 88001
 - a total of 643 particle templates (mass 3.723345e+00) inserted so far.
WARNING: Particle insertion: Less insertions than requested (../fix_insert.cpp:814)
INFO: Particle insertion ins_con: inserted 12 particle templates (mass 6.948700e-02) at step 89601
 - a total of 655 particle templates (mass 3.792832e+00) inserted so far.
WARNING: Particle insertion: Less insertions than requested (../fix_insert.cpp:814)
INFO: Particle insertion ins_con: inserted 12 particle templates (mass 6.948700e-02) at step 91201
 - a total of 667 particle templates (mass 3.862319e+00) inserted so far.
WARNING: Particle insertion: Less insertions than requested (../fix_insert.cpp:814)
INFO: Particle insertion ins_con: inserted 12 particle templates (mass 6.948700e-02) at step 92801
 - a total of 679 particle templates (mass 3.931806e+00) inserted so far.
WARNING: Particle insertion: Less insertions than requested (../fix_insert.cpp:814)
INFO: Particle insertion ins_con: inserted 11 particle templates (mass 6.369642e-02) at step 94401
 - a total of 690 particle templates (mass 3.995503e+00) inserted so far.
WARNING: Particle insertion: Less insertions than requested (../fix_insert.cpp:814)
INFO: Particle insertion ins_con: inserted 10 particle templates (mass 5.790584e-02) at step 96001
 - a total of 700 particle templates (mass 4.053409e+00) inserted so far.
WARNING: Particle insertion: Less insertions than requested (../fix_insert.cpp:814)
INFO: Particle insertion ins_con: inserted 11 particle templates (mass 6.369642e-02) at step 97601
 - a total of 711 particle templates (mass 4.117105e+00) inserted so far.
WARNING: Particle insertion: Less insertions than requested (../fix_insert.cpp:814)
INFO: Particle insertion ins_con: inserted 11 particle templates (mass 6.369642e-02) at step 99201
 - a total of 722 particle templates (mass 4.180801e+00) inserted so far.
WARNING: Particle insertion: Less insertions than requested (../fix_insert.cpp:814)
  100001      722    0.012516975      347.03175 
Loop time of 347.032 on 3 procs for 100000 steps with 722 atoms, finish time Sat Mar 25 01:04:47 2023


Pair  time (%) = 3.2047 (0.92346)
Neigh time (%) = 1.53858 (0.443354)
Comm  time (%) = 37.409 (10.7797)
Outpt time (%) = 13.9871 (4.0305)
Other time (%) = 290.892 (83.823)

Nlocal:    240.667 ave 715 max 0 min
Histogram: 2 0 0 0 0 0 0 0 0 1
Nghost:    1.66667 ave 3 max 0 min
Histogram: 1 0 0 0 0 0 1 0 0 1
Neighs:    722 ave 2159 max 0 min
Histogram: 2 0 0 0 0 0 0 0 0 1

Total # of neighbors = 2166
Ave neighs/atom = 3
Neighbor list builds = 10380
Dangerous builds = 0
unfix   ins_con

run     ${settlesteps}
run     10000
Setting up run at Sat Mar 25 01:04:47 2023

Memory usage per processor = 18.1717 Mbytes
    Step    Atoms         KinEng            CPU 
  100001      722    0.012516975              0 
  110001      722  1.0825111e-09      42.232811 
Loop time of 42.2328 on 3 procs for 10000 steps with 722 atoms, finish time Sat Mar 25 01:05:29 2023


Pair  time (%) = 0.679916 (1.60992)
Neigh time (%) = 0.0702723 (0.166393)
Comm  time (%) = 0.65029 (1.53977)
Outpt time (%) = 1.4773 (3.49799)
Other time (%) = 39.355 (93.1859)

Nlocal:    240.667 ave 722 max 0 min
Histogram: 2 0 0 0 0 0 0 0 0 1
Nghost:    0 ave 0 max 0 min
Histogram: 3 0 0 0 0 0 0 0 0 0
Neighs:    738.333 ave 2215 max 0 min
Histogram: 2 0 0 0 0 0 0 0 0 1

Total # of neighbors = 2215
Ave neighs/atom = 3.06787
Neighbor list builds = 294
Dangerous builds = 0

fix	Movescrew  all move/mesh mesh screw rotate origin 0 -0.045 0 axis 0 0 1 period ${screwPeriod}
fix	Movescrew  all move/mesh mesh screw rotate origin 0 -0.045 0 axis 0 0 1 period 1
fix	Movescrew_inv  all move/mesh mesh screw_inv rotate origin 0 0.045 0 axis 0 0 -1 period ${screwPeriod}
fix	Movescrew_inv  all move/mesh mesh screw_inv rotate origin 0 0.045 0 axis 0 0 -1 period 1

fix 	ins_acc all insert/stream seed 86028121 distributiontemplate pdd2         mass ${fillmassAcc} massrate ${fillmassrateAcc} overlapcheck yes all_in yes vel constant 0.75 0.75  0          insertion_face ins_mesh_acc extrude_length 0.02
fix 	ins_acc all insert/stream seed 86028121 distributiontemplate pdd2         mass 405 massrate ${fillmassrateAcc} overlapcheck yes all_in yes vel constant 0.75 0.75  0          insertion_face ins_mesh_acc extrude_length 0.02
fix 	ins_acc all insert/stream seed 86028121 distributiontemplate pdd2         mass 405 massrate 40.5 overlapcheck yes all_in yes vel constant 0.75 0.75  0          insertion_face ins_mesh_acc extrude_length 0.02
run     ${mixingSteps}
run     150000
Setting up run at Sat Mar 25 01:05:29 2023

INFO: Particle insertion ins_acc: 20143.047485 particles every 200 steps - particle rate 1007152.374253, (mass rate 4.050000e+01)
      10071523 particles (mass 4.050000e+02) within 99800 steps
Memory usage per processor = 18.1728 Mbytes
    Step    Atoms         KinEng            CPU 
  110001      722  1.0825111e-09              0 
INFO: Particle insertion ins_acc: inserted 5 particle templates (mass 2.010619e-04) at step 110002
 - a total of 5 particle templates (mass 2.010619e-04) inserted so far.
WARNING: Particle insertion: Less insertions than requested (../fix_insert.cpp:814)
INFO: Particle insertion ins_acc: inserted 3 particle templates (mass 1.206372e-04) at step 110202
 - a total of 8 particle templates (mass 3.216991e-04) inserted so far.
WARNING: Particle insertion: Less insertions than requested (../fix_insert.cpp:814)
INFO: Particle insertion ins_acc: inserted 4 particle templates (mass 1.608495e-04) at step 110402
 - a total of 12 particle templates (mass 4.825486e-04) inserted so far.
WARNING: Particle insertion: Less insertions than requested (../fix_insert.cpp:814)
INFO: Particle insertion ins_acc: inserted 4 particle templates (mass 1.608495e-04) at step 110602
 - a total of 16 particle templates (mass 6.433982e-04) inserted so far.
WARNING: Particle insertion: Less insertions than requested (../fix_insert.cpp:814)
INFO: Particle insertion ins_acc: inserted 4 particle templates (mass 1.608495e-04) at step 110802
 - a total of 20 particle templates (mass 8.042477e-04) inserted so far.
WARNING: Particle insertion: Less insertions than requested (../fix_insert.cpp:814)
INFO: Particle insertion ins_acc: inserted 3 particle templates (mass 1.206372e-04) at step 111002
 - a total of 23 particle templates (mass 9.248849e-04) inserted so far.
WARNING: Particle insertion: Less insertions than requested (../fix_insert.cpp:814)
INFO: Particle insertion ins_acc: inserted 3 particle templates (mass 1.206372e-04) at step 111202
 - a total of 26 particle templates (mass 1.045522e-03) inserted so far.
WARNING: Particle insertion: Less insertions than requested (../fix_insert.cpp:814)
INFO: Particle insertion ins_acc: inserted 3 particle templates (mass 1.206372e-04) at step 111402
 - a total of 29 particle templates (mass 1.166159e-03) inserted so far.
WARNING: Particle insertion: Less insertions than requested (../fix_insert.cpp:814)
INFO: Particle insertion ins_acc: inserted 4 particle templates (mass 1.608495e-04) at step 111602
 - a total of 33 particle templates (mass 1.327009e-03) inserted so far.
WARNING: Particle insertion: Less insertions than requested (../fix_insert.cpp:814)
INFO: Particle insertion ins_acc: inserted 3 particle templates (mass 1.206372e-04) at step 111802
 - a total of 36 particle templates (mass 1.447646e-03) inserted so far.
WARNING: Particle insertion: Less insertions than requested (../fix_insert.cpp:814)
INFO: Particle insertion ins_acc: inserted 4 particle templates (mass 1.608495e-04) at step 112002
 - a total of 40 particle templates (mass 1.608495e-03) inserted so far.
WARNING: Particle insertion: Less insertions than requested (../fix_insert.cpp:814)
INFO: Particle insertion ins_acc: inserted 4 particle templates (mass 1.608495e-04) at step 112202
 - a total of 44 particle templates (mass 1.769345e-03) inserted so far.
WARNING: Particle insertion: Less insertions than requested (../fix_insert.cpp:814)
INFO: Particle insertion ins_acc: inserted 4 particle templates (mass 1.608495e-04) at step 112402
 - a total of 48 particle templates (mass 1.930195e-03) inserted so far.
WARNING: Particle insertion: Less insertions than requested (../fix_insert.cpp:814)
INFO: Particle insertion ins_acc: inserted 4 particle templates (mass 1.608495e-04) at step 112602
 - a total of 52 particle templates (mass 2.091044e-03) inserted so far.
WARNING: Particle insertion: Less insertions than requested (../fix_insert.cpp:814)
INFO: Particle insertion ins_acc: inserted 4 particle templates (mass 1.608495e-04) at step 112802
 - a total of 56 particle templates (mass 2.251894e-03) inserted so far.
WARNING: Particle insertion: Less insertions than requested (../fix_insert.cpp:814)
INFO: Particle insertion ins_acc: inserted 4 particle templates (mass 1.608495e-04) at step 113002
 - a total of 60 particle templates (mass 2.412743e-03) inserted so far.
WARNING: Particle insertion: Less insertions than requested (../fix_insert.cpp:814)
INFO: Particle insertion ins_acc: inserted 4 particle templates (mass 1.608495e-04) at step 113202
 - a total of 64 particle templates (mass 2.573593e-03) inserted so far.
WARNING: Particle insertion: Less insertions than requested (../fix_insert.cpp:814)
WARNING: Forced restart written (../output.cpp:427)
  113238      786     0.16230123      155.92402 
Loop time of 155.924 on 3 procs for 150000 steps with 786 atoms, finish time Sat Mar 25 01:08:05 2023


Pair  time (%) = 0.18483 (0.118539)
Neigh time (%) = 0.175302 (0.112428)
Comm  time (%) = 7.92697 (5.08386)
Outpt time (%) = 0.487263 (0.312501)
Other time (%) = 147.15 (94.3727)

Nlocal:    262 ave 786 max 0 min
Histogram: 2 0 0 0 0 0 0 0 0 1
Nghost:    0.666667 ave 2 max 0 min
Histogram: 2 0 0 0 0 0 0 0 0 1
Neighs:    678.333 ave 2035 max 0 min
Histogram: 2 0 0 0 0 0 0 0 0 1

Total # of neighbors = 2035
Ave neighs/atom = 2.58906
Neighbor list builds = 766
Dangerous builds = 188
