LIGGGHTS (Version LIGGGHTS-PUBLIC 3.8.0, compiled 2023-03-15-17:42:14 by weitinglinux, git commit 9fb7f67592be9304afca9cb6840892b3b7d048d6)
###Header for General commands###

#Simulation of particles
atom_style	granular
boundary	f f f			        #fixed boundaries -> particles will be deleted if leaving the simulation box
units		si
communicate	single vel yes	#default

newton		off				#default

###System variables###

#Definition of boundaries [m]
variable xmin equal -0.2
variable xmax equal 0.2

variable ymin equal -0.3
variable ymax equal 0.3

variable zmin equal -0.3
variable zmax equal 0.5

#Definition of the timestep
#timestep = 0.0001 second; Each iteration step represents 0.0001 seconds.
variable dt equal 1e-4


###Specific variables for current simulation####

variable natoms equal 2 	        #1 -> particle #2->funnel, screw, and screw_inv

#Variable for material properties#

#Young Modulus
#soft_particles yes
variable	youngModulusCon 	equal 	5e6	#N/mm² (30 to 50Gpa)
variable	youngModulus    	equal 	5e6	#N/mm² (30 to 50Gpa)

variable	youngModulusAcc 	equal 	2e4	#N/mm² (10Gpa)

#Poission ratio
variable 	poissionCon1	equal	0.3
variable 	poissionCon2	equal	0.3
variable 	poissionAcc	equal	0.25

#variable for contact properties#

#coefficient of restitution
variable	CoR11	equal	0.6
variable	CoR12	equal	0.6
variable	CoR21	equal	0.6
variable	CoR22	equal	0.6

#sliding friction coefficient
variable	sf11	equal	0.5
variable	sf12	equal	0.5
variable	sf21	equal	0.5
variable	sf22	equal	0.5

#rolling friction coefficient
variable	rf11	equal	0.05
variable	rf12	equal	0.05
variable	rf21	equal	0.05
variable	rf22	equal	0.05


#Variable for particle##

#Number of particle radius
variable	nradii	equal	2

#Concrete particles

variable	radiusCon1	equal	0.004	#m Fine aggregates
variable	radiusCon2	equal	0.008	#m Coarse aggregates

variable	frac1	        equal	0.7		#70%
variable	frac2	        equal	0.3		#30%

variable	densityCon	equal	2700	        #kg/m³ #aggregate desnsity


#Accelerator particles

variable	radiusAcc	equal	0.002	        #m
variable	densityAcc	equal	2700	        #kg/m³

#filling parameters#

##define the flowrate
variable        timeFactor	equal	10.0				#seconds
variable        filltime	equal	20.0				#seconds
variable        fillVoulume     equal   2                               #Liter

#fill concrete
variable	fillmass	equal	${densityCon}*(${fillVoulume}/1000)	#kg
variable	fillmass	equal	2700*(${fillVoulume}/1000)	
variable	fillmass	equal	2700*(2/1000)	
variable	fillmassrate	equal	${fillmass}/${filltime}	                #kg/s
variable	fillmassrate	equal	5.4/${filltime}	                
variable	fillmassrate	equal	5.4/20	                

#fill concrete
variable        factor          equal   0.05
variable	fillmassAcc	equal	${densityAcc}*${fillmass}*${factor}  #kg
variable	fillmassAcc	equal	2700*${fillmass}*${factor}  
variable	fillmassAcc	equal	2700*5.4*${factor}  
variable	fillmassAcc	equal	2700*5.4*0.05  
variable	fillmassrateAcc	equal	${fillmassAcc}/${filltime}	        #kg
variable	fillmassrateAcc	equal	729/${filltime}	        
variable	fillmassrateAcc	equal	729/20	        

variable	fillsteps	equal	${filltime}/${dt}		#Transform time to iteration steps
variable	fillsteps	equal	20/${dt}		
variable	fillsteps	equal	20/0.0001		

## define the speed
# rpm = roataion per minute
# ex. 60 rpm = 60 rev/min = 1 rev/s
variable        screwSpeed      equal   80.0                             #rpm
variable        screwPeriod     equal   ${screwSpeed}/60.0               #s/rev ,period of the srew rotation (time for 1 rotation)
variable        screwPeriod     equal   80/60.0               



####settle time####
variable	settletime	equal	1.0                             #second
variable	settlesteps	equal	${settletime}/${dt}		#Transform time to iteration steps
variable	settlesteps	equal	1/${dt}		
variable	settlesteps	equal	1/0.0001		


####mixing time####
variable	mixingTime	equal	30.0                              #sec
variable	mixingSteps	equal	${mixingTime}/${dt}		#Transform time to iteration steps
variable	mixingSteps	equal	30/${dt}		
variable	mixingSteps	equal	30/0.0001		


####Definition of simulationbox####
region		reg block ${xmin} ${xmax} ${ymin} ${ymax} ${zmin} ${zmax} units box
region		reg block -0.2 ${xmax} ${ymin} ${ymax} ${zmin} ${zmax} units box
region		reg block -0.2 0.2 ${ymin} ${ymax} ${zmin} ${zmax} units box
region		reg block -0.2 0.2 -0.3 ${ymax} ${zmin} ${zmax} units box
region		reg block -0.2 0.2 -0.3 0.3 ${zmin} ${zmax} units box
region		reg block -0.2 0.2 -0.3 0.3 -0.3 ${zmax} units box
region		reg block -0.2 0.2 -0.3 0.3 -0.3 0.5 units box
create_box	2 reg
Created orthogonal box = (-0.2 -0.3 -0.3) to (0.2 0.3 0.5)
  1 by 1 by 3 MPI processor grid
neighbor	0.002 bin		#default
neigh_modify	delay 0		        #default


####Definition of the contact models####

pair_style gran model hertz tangential history rolling_friction epsd2	#contact model
WARNING: 
	The contact model you specified is not located in any whitelist.
	Because of this the model will be run in an unoptimized version (increasing runtime by up to 20%).
	In order to optimize this model you have the following options:
		(i)  Run the genAutoExamplesWhitelist.sh script in your LIGGGHTS(R) source folder to automatically parse the input script
		(ii) Add the model combination by hand to your style_contact_model_user.whitelist that can be found in your LIGGGHTS(R) source folder
		(iii) Use the ENABLE_MODEL_* flag when building with cmake.
	If you perform one of the steps above LIGGGHTS(R) needs to be recompiled to generate the optimized code.

 (../contact_models.h:365)
pair_coeff	* *				#default
timestep ${dt}
timestep 0.0001

fix	integrator all nve/sphere			#default
fix	gravi all gravity 9.81 vector 0.0 0.0 -1.0	#gravity of 9.81 m/s² in negative z direction



###efinition of Material properties####

fix 	m1 all property/global youngsModulus peratomtype ${youngModulusCon} ${youngModulus}
fix 	m1 all property/global youngsModulus peratomtype 5000000 ${youngModulus}
fix 	m1 all property/global youngsModulus peratomtype 5000000 5000000
fix 	m2 all property/global poissonsRatio peratomtype ${poissionCon1} ${poissionAcc}
fix 	m2 all property/global poissonsRatio peratomtype 0.3 ${poissionAcc}
fix 	m2 all property/global poissonsRatio peratomtype 0.3 0.25
fix 	m3 all property/global coefficientRestitution peratomtypepair ${natoms} ${CoR11} ${CoR12} ${CoR21} ${CoR22}
fix 	m3 all property/global coefficientRestitution peratomtypepair 2 ${CoR11} ${CoR12} ${CoR21} ${CoR22}
fix 	m3 all property/global coefficientRestitution peratomtypepair 2 0.6 ${CoR12} ${CoR21} ${CoR22}
fix 	m3 all property/global coefficientRestitution peratomtypepair 2 0.6 0.6 ${CoR21} ${CoR22}
fix 	m3 all property/global coefficientRestitution peratomtypepair 2 0.6 0.6 0.6 ${CoR22}
fix 	m3 all property/global coefficientRestitution peratomtypepair 2 0.6 0.6 0.6 0.6
fix 	m4 all property/global coefficientFriction peratomtypepair ${natoms} ${sf11} ${sf12} ${sf21} ${sf22}
fix 	m4 all property/global coefficientFriction peratomtypepair 2 ${sf11} ${sf12} ${sf21} ${sf22}
fix 	m4 all property/global coefficientFriction peratomtypepair 2 0.5 ${sf12} ${sf21} ${sf22}
fix 	m4 all property/global coefficientFriction peratomtypepair 2 0.5 0.5 ${sf21} ${sf22}
fix 	m4 all property/global coefficientFriction peratomtypepair 2 0.5 0.5 0.5 ${sf22}
fix 	m4 all property/global coefficientFriction peratomtypepair 2 0.5 0.5 0.5 0.5
fix 	m5 all property/global coefficientRollingFriction peratomtypepair ${natoms} ${rf11} ${rf12} ${rf21} ${rf22}
fix 	m5 all property/global coefficientRollingFriction peratomtypepair 2 ${rf11} ${rf12} ${rf21} ${rf22}
fix 	m5 all property/global coefficientRollingFriction peratomtypepair 2 0.05 ${rf12} ${rf21} ${rf22}
fix 	m5 all property/global coefficientRollingFriction peratomtypepair 2 0.05 0.05 ${rf21} ${rf22}
fix 	m5 all property/global coefficientRollingFriction peratomtypepair 2 0.05 0.05 0.05 ${rf22}
fix 	m5 all property/global coefficientRollingFriction peratomtypepair 2 0.05 0.05 0.05 0.05


###Generation and Loading of the Geometry####

#load mesh from STL file. Type 2 for geometry. Scale down to transform mm to meters
fix	funnel 		all mesh/surface file meshes/funnel.stl type 2 scale 0.001

fix	screw 		all mesh/surface file meshes/impeller_hexical_1.stl type 2 scale 0.001 curvature 1e-5 curvature_tolerant yes
fix	screw_inv 	all mesh/surface file meshes/impeller_hexical_inver_2.stl type 2 scale 0.001 curvature 1e-5 curvature_tolerant yes

fix	walls 		all wall/gran model hertz tangential history rolling_friction epsd2 mesh n_meshes 3 meshes funnel screw screw_inv
WARNING: 
	The contact model you specified is not located in any whitelist.
	Because of this the model will be run in an unoptimized version (increasing runtime by up to 20%).
	In order to optimize this model you have the following options:
		(i)  Run the genAutoExamplesWhitelist.sh script in your LIGGGHTS(R) source folder to automatically parse the input script
		(ii) Add the model combination by hand to your style_contact_model_user.whitelist that can be found in your LIGGGHTS(R) source folder
		(iii) Use the ENABLE_MODEL_* flag when building with cmake.
	If you perform one of the steps above LIGGGHTS(R) needs to be recompiled to generate the optimized code.

 (../contact_models.h:365)



####Generation and Insertion of the particles####

fix	pts1 all particletemplate/sphere 10487 atom_type 1 density constant ${densityCon} radius constant ${radiusCon1}
fix	pts1 all particletemplate/sphere 10487 atom_type 1 density constant 2700 radius constant ${radiusCon1}
fix	pts1 all particletemplate/sphere 10487 atom_type 1 density constant 2700 radius constant 0.004
#fix	pts2 all particletemplate/sphere 11887 atom_type 1 density constant ${densityCon} radius constant ${radiusCon2}
fix	pts3 all particletemplate/sphere 10487 atom_type 1 density constant ${densityAcc} radius constant ${radiusAcc}
fix	pts3 all particletemplate/sphere 10487 atom_type 1 density constant 2700 radius constant ${radiusAcc}
fix	pts3 all particletemplate/sphere 10487 atom_type 1 density constant 2700 radius constant 0.002

#fix 	pdd1 all particledistribution/discrete 32452867 ${nradii} pts1 ${frac1} pts2 ${frac2}

fix 	pdd1 all particledistribution/discrete 32452867 1 pts1 1.0
fix 	pdd2 all particledistribution/discrete 32452843 1 pts3 1.0

fix	ins_mesh_con all mesh/surface/planar file meshes/insertion_con_simple_top.stl  type 1 scale 0.001
fix	ins_mesh_acc all mesh/surface/planar file meshes/insertion_acc.stl  type 1 scale 0.001

fix 	ins_con all insert/stream seed 86028121 distributiontemplate pdd1         mass ${fillmass} massrate ${fillmassrate} overlapcheck yes all_in yes vel constant  0  0 -0.5         insertion_face ins_mesh_con extrude_length 0.08
fix 	ins_con all insert/stream seed 86028121 distributiontemplate pdd1         mass 5.4 massrate ${fillmassrate} overlapcheck yes all_in yes vel constant  0  0 -0.5         insertion_face ins_mesh_con extrude_length 0.08
fix 	ins_con all insert/stream seed 86028121 distributiontemplate pdd1         mass 5.4 massrate 0.27 overlapcheck yes all_in yes vel constant  0  0 -0.5         insertion_face ins_mesh_con extrude_length 0.08

####Dumping of the data for post-processing to visualize####

shell 	mkdir post
shell   mkdir simu

#Definition of the dumptime

variable dumptime equal 0.05	                        # Every 0.05 s 1 image
variable dumpstep equal ${dumptime}/${dt}	        #Transform to iteration steps
variable dumpstep equal 0.05/${dt}	        
variable dumpstep equal 0.05/0.0001	        


####Run####

#Run simulation iteration==1 and dump the file
run    	1
Setting up run at Mon Mar 27 17:11:51 2023

INFO: Particle insertion ins_con: 59.683104 particles every 1600 steps - particle rate 373.019398, (mass rate 2.700000e-01)
      7460 particles (mass 5.399719e+00) within 198400 steps
Memory usage per processor = 16.5764 Mbytes
    Step    Atoms         KinEng            CPU 
       0        0              0              0 
INFO: Particle insertion ins_con: inserted 56 particle templates (mass 4.053409e-02) at step 1
 - a total of 56 particle templates (mass 4.053409e-02) inserted so far.
WARNING: Particle insertion: Less insertions than requested (../fix_insert.cpp:814)
       1       56   0.0050667606    0.009432048 
Loop time of 0.00944162 on 3 procs for 1 steps with 56 atoms, finish time Mon Mar 27 17:11:55 2023


Pair  time (%) = 3.11533e-06 (0.0329958)
Neigh time (%) = 0.000418658 (4.43418)
Comm  time (%) = 0.000239429 (2.53589)
Outpt time (%) = 0.000530178 (5.61533)
Other time (%) = 0.00825024 (87.3816)

Nlocal:    18.6667 ave 56 max 0 min
Histogram: 2 0 0 0 0 0 0 0 0 1
Nghost:    1.66667 ave 5 max 0 min
Histogram: 2 0 0 0 0 0 0 0 0 1
Neighs:    17.6667 ave 53 max 0 min
Histogram: 2 0 0 0 0 0 0 0 0 1

Total # of neighbors = 53
Ave neighs/atom = 0.946429
Neighbor list builds = 1
Dangerous builds = 0
dump   	dmpparticle all custom/vtk ${dumpstep} post/particles_*.vtk id type type x y z ix iy iz vx vy vz fx fy fz omegax omegay omegaz radius
dump   	dmpparticle all custom/vtk 500 post/particles_*.vtk id type type x y z ix iy iz vx vy vz fx fy fz omegax omegay omegaz radius
dump   	dumpfunnel all mesh/stl ${dumpstep} post/funnel*.stl funnel
dump   	dumpfunnel all mesh/stl 500 post/funnel*.stl funnel
dump	dumpscrew all mesh/stl ${dumpstep} post/screw*.stl screw screw_inv
dump	dumpscrew all mesh/stl 500 post/screw*.stl screw screw_inv

#Run simulation
run     ${fillsteps}
run     200000
Setting up run at Mon Mar 27 17:11:55 2023

Memory usage per processor = 16.5764 Mbytes
    Step    Atoms         KinEng            CPU 
       1       56   0.0050667606              0 
INFO: Particle insertion ins_con: inserted 56 particle templates (mass 4.053409e-02) at step 1601
 - a total of 112 particle templates (mass 8.106817e-02) inserted so far.
WARNING: Particle insertion: Less insertions than requested (../fix_insert.cpp:814)
INFO: Particle insertion ins_con: inserted 57 particle templates (mass 4.125791e-02) at step 3201
 - a total of 169 particle templates (mass 1.223261e-01) inserted so far.
WARNING: Particle insertion: Less insertions than requested (../fix_insert.cpp:814)
INFO: Particle insertion ins_con: inserted 57 particle templates (mass 4.125791e-02) at step 4801
 - a total of 226 particle templates (mass 1.635840e-01) inserted so far.
WARNING: Particle insertion: Less insertions than requested (../fix_insert.cpp:814)
INFO: Particle insertion ins_con: inserted 57 particle templates (mass 4.125791e-02) at step 6401
 - a total of 283 particle templates (mass 2.048419e-01) inserted so far.
WARNING: Particle insertion: Less insertions than requested (../fix_insert.cpp:814)
INFO: Particle insertion ins_con: inserted 57 particle templates (mass 4.125791e-02) at step 8001
 - a total of 340 particle templates (mass 2.460998e-01) inserted so far.
WARNING: Particle insertion: Less insertions than requested (../fix_insert.cpp:814)
INFO: Particle insertion ins_con: inserted 57 particle templates (mass 4.125791e-02) at step 9601
 - a total of 397 particle templates (mass 2.873577e-01) inserted so far.
WARNING: Particle insertion: Less insertions than requested (../fix_insert.cpp:814)
INFO: Particle insertion ins_con: inserted 57 particle templates (mass 4.125791e-02) at step 11201
 - a total of 454 particle templates (mass 3.286156e-01) inserted so far.
WARNING: Particle insertion: Less insertions than requested (../fix_insert.cpp:814)
INFO: Particle insertion ins_con: inserted 56 particle templates (mass 4.053409e-02) at step 12801
 - a total of 510 particle templates (mass 3.691497e-01) inserted so far.
WARNING: Particle insertion: Less insertions than requested (../fix_insert.cpp:814)
INFO: Particle insertion ins_con: inserted 56 particle templates (mass 4.053409e-02) at step 14401
 - a total of 566 particle templates (mass 4.096838e-01) inserted so far.
WARNING: Particle insertion: Less insertions than requested (../fix_insert.cpp:814)
INFO: Particle insertion ins_con: inserted 56 particle templates (mass 4.053409e-02) at step 16001
 - a total of 622 particle templates (mass 4.502179e-01) inserted so far.
WARNING: Particle insertion: Less insertions than requested (../fix_insert.cpp:814)
INFO: Particle insertion ins_con: inserted 57 particle templates (mass 4.125791e-02) at step 17601
 - a total of 679 particle templates (mass 4.914758e-01) inserted so far.
WARNING: Particle insertion: Less insertions than requested (../fix_insert.cpp:814)
INFO: Particle insertion ins_con: inserted 57 particle templates (mass 4.125791e-02) at step 19201
 - a total of 736 particle templates (mass 5.327337e-01) inserted so far.
WARNING: Particle insertion: Less insertions than requested (../fix_insert.cpp:814)
INFO: Particle insertion ins_con: inserted 56 particle templates (mass 4.053409e-02) at step 20801
 - a total of 792 particle templates (mass 5.732678e-01) inserted so far.
WARNING: Particle insertion: Less insertions than requested (../fix_insert.cpp:814)
INFO: Particle insertion ins_con: inserted 56 particle templates (mass 4.053409e-02) at step 22401
 - a total of 848 particle templates (mass 6.138019e-01) inserted so far.
WARNING: Particle insertion: Less insertions than requested (../fix_insert.cpp:814)
INFO: Particle insertion ins_con: inserted 56 particle templates (mass 4.053409e-02) at step 24001
 - a total of 904 particle templates (mass 6.543359e-01) inserted so far.
WARNING: Particle insertion: Less insertions than requested (../fix_insert.cpp:814)
INFO: Particle insertion ins_con: inserted 56 particle templates (mass 4.053409e-02) at step 25601
 - a total of 960 particle templates (mass 6.948700e-01) inserted so far.
WARNING: Particle insertion: Less insertions than requested (../fix_insert.cpp:814)
INFO: Particle insertion ins_con: inserted 56 particle templates (mass 4.053409e-02) at step 27201
 - a total of 1016 particle templates (mass 7.354041e-01) inserted so far.
WARNING: Particle insertion: Less insertions than requested (../fix_insert.cpp:814)
INFO: Particle insertion ins_con: inserted 55 particle templates (mass 3.981026e-02) at step 28801
 - a total of 1071 particle templates (mass 7.752144e-01) inserted so far.
WARNING: Particle insertion: Less insertions than requested (../fix_insert.cpp:814)
INFO: Particle insertion ins_con: inserted 56 particle templates (mass 4.053409e-02) at step 30401
 - a total of 1127 particle templates (mass 8.157485e-01) inserted so far.
WARNING: Particle insertion: Less insertions than requested (../fix_insert.cpp:814)
INFO: Particle insertion ins_con: inserted 56 particle templates (mass 4.053409e-02) at step 32001
 - a total of 1183 particle templates (mass 8.562825e-01) inserted so far.
WARNING: Particle insertion: Less insertions than requested (../fix_insert.cpp:814)
INFO: Particle insertion ins_con: inserted 56 particle templates (mass 4.053409e-02) at step 33601
 - a total of 1239 particle templates (mass 8.968166e-01) inserted so far.
WARNING: Particle insertion: Less insertions than requested (../fix_insert.cpp:814)
INFO: Particle insertion ins_con: inserted 56 particle templates (mass 4.053409e-02) at step 35201
 - a total of 1295 particle templates (mass 9.373507e-01) inserted so far.
WARNING: Particle insertion: Less insertions than requested (../fix_insert.cpp:814)
INFO: Particle insertion ins_con: inserted 55 particle templates (mass 3.981026e-02) at step 36801
 - a total of 1350 particle templates (mass 9.771610e-01) inserted so far.
WARNING: Particle insertion: Less insertions than requested (../fix_insert.cpp:814)
INFO: Particle insertion ins_con: inserted 56 particle templates (mass 4.053409e-02) at step 38401
 - a total of 1406 particle templates (mass 1.017695e+00) inserted so far.
WARNING: Particle insertion: Less insertions than requested (../fix_insert.cpp:814)
INFO: Particle insertion ins_con: inserted 57 particle templates (mass 4.125791e-02) at step 40001
 - a total of 1463 particle templates (mass 1.058953e+00) inserted so far.
WARNING: Particle insertion: Less insertions than requested (../fix_insert.cpp:814)
INFO: Particle insertion ins_con: inserted 56 particle templates (mass 4.053409e-02) at step 41601
 - a total of 1519 particle templates (mass 1.099487e+00) inserted so far.
WARNING: Particle insertion: Less insertions than requested (../fix_insert.cpp:814)
INFO: Particle insertion ins_con: inserted 55 particle templates (mass 3.981026e-02) at step 43201
 - a total of 1574 particle templates (mass 1.139297e+00) inserted so far.
WARNING: Particle insertion: Less insertions than requested (../fix_insert.cpp:814)
INFO: Particle insertion ins_con: inserted 55 particle templates (mass 3.981026e-02) at step 44801
 - a total of 1629 particle templates (mass 1.179108e+00) inserted so far.
WARNING: Particle insertion: Less insertions than requested (../fix_insert.cpp:814)
INFO: Particle insertion ins_con: inserted 57 particle templates (mass 4.125791e-02) at step 46401
 - a total of 1686 particle templates (mass 1.220365e+00) inserted so far.
WARNING: Particle insertion: Less insertions than requested (../fix_insert.cpp:814)
INFO: Particle insertion ins_con: inserted 55 particle templates (mass 3.981026e-02) at step 48001
 - a total of 1741 particle templates (mass 1.260176e+00) inserted so far.
WARNING: Particle insertion: Less insertions than requested (../fix_insert.cpp:814)
INFO: Particle insertion ins_con: inserted 56 particle templates (mass 4.053409e-02) at step 49601
 - a total of 1797 particle templates (mass 1.300710e+00) inserted so far.
WARNING: Particle insertion: Less insertions than requested (../fix_insert.cpp:814)
INFO: Particle insertion ins_con: inserted 56 particle templates (mass 4.053409e-02) at step 51201
 - a total of 1853 particle templates (mass 1.341244e+00) inserted so far.
WARNING: Particle insertion: Less insertions than requested (../fix_insert.cpp:814)
INFO: Particle insertion ins_con: inserted 56 particle templates (mass 4.053409e-02) at step 52801
 - a total of 1909 particle templates (mass 1.381778e+00) inserted so far.
WARNING: Particle insertion: Less insertions than requested (../fix_insert.cpp:814)
INFO: Particle insertion ins_con: inserted 56 particle templates (mass 4.053409e-02) at step 54401
 - a total of 1965 particle templates (mass 1.422312e+00) inserted so far.
WARNING: Particle insertion: Less insertions than requested (../fix_insert.cpp:814)
INFO: Particle insertion ins_con: inserted 56 particle templates (mass 4.053409e-02) at step 56001
 - a total of 2021 particle templates (mass 1.462846e+00) inserted so far.
WARNING: Particle insertion: Less insertions than requested (../fix_insert.cpp:814)
INFO: Particle insertion ins_con: inserted 56 particle templates (mass 4.053409e-02) at step 57601
 - a total of 2077 particle templates (mass 1.503380e+00) inserted so far.
WARNING: Particle insertion: Less insertions than requested (../fix_insert.cpp:814)
INFO: Particle insertion ins_con: inserted 56 particle templates (mass 4.053409e-02) at step 59201
 - a total of 2133 particle templates (mass 1.543914e+00) inserted so far.
WARNING: Particle insertion: Less insertions than requested (../fix_insert.cpp:814)
INFO: Particle insertion ins_con: inserted 57 particle templates (mass 4.125791e-02) at step 60801
 - a total of 2190 particle templates (mass 1.585172e+00) inserted so far.
WARNING: Particle insertion: Less insertions than requested (../fix_insert.cpp:814)
INFO: Particle insertion ins_con: inserted 56 particle templates (mass 4.053409e-02) at step 62401
 - a total of 2246 particle templates (mass 1.625706e+00) inserted so far.
WARNING: Particle insertion: Less insertions than requested (../fix_insert.cpp:814)
INFO: Particle insertion ins_con: inserted 57 particle templates (mass 4.125791e-02) at step 64001
 - a total of 2303 particle templates (mass 1.666964e+00) inserted so far.
WARNING: Particle insertion: Less insertions than requested (../fix_insert.cpp:814)
INFO: Particle insertion ins_con: inserted 57 particle templates (mass 4.125791e-02) at step 65601
 - a total of 2360 particle templates (mass 1.708222e+00) inserted so far.
WARNING: Particle insertion: Less insertions than requested (../fix_insert.cpp:814)
INFO: Particle insertion ins_con: inserted 55 particle templates (mass 3.981026e-02) at step 67201
 - a total of 2415 particle templates (mass 1.748032e+00) inserted so far.
WARNING: Particle insertion: Less insertions than requested (../fix_insert.cpp:814)
INFO: Particle insertion ins_con: inserted 56 particle templates (mass 4.053409e-02) at step 68801
 - a total of 2471 particle templates (mass 1.788567e+00) inserted so far.
WARNING: Particle insertion: Less insertions than requested (../fix_insert.cpp:814)
INFO: Particle insertion ins_con: inserted 57 particle templates (mass 4.125791e-02) at step 70401
 - a total of 2528 particle templates (mass 1.829824e+00) inserted so far.
WARNING: Particle insertion: Less insertions than requested (../fix_insert.cpp:814)
INFO: Particle insertion ins_con: inserted 56 particle templates (mass 4.053409e-02) at step 72001
 - a total of 2584 particle templates (mass 1.870358e+00) inserted so far.
WARNING: Particle insertion: Less insertions than requested (../fix_insert.cpp:814)
INFO: Particle insertion ins_con: inserted 56 particle templates (mass 4.053409e-02) at step 73601
 - a total of 2640 particle templates (mass 1.910893e+00) inserted so far.
WARNING: Particle insertion: Less insertions than requested (../fix_insert.cpp:814)
INFO: Particle insertion ins_con: inserted 57 particle templates (mass 4.125791e-02) at step 75201
 - a total of 2697 particle templates (mass 1.952150e+00) inserted so far.
WARNING: Particle insertion: Less insertions than requested (../fix_insert.cpp:814)
INFO: Particle insertion ins_con: inserted 56 particle templates (mass 4.053409e-02) at step 76801
 - a total of 2753 particle templates (mass 1.992685e+00) inserted so far.
WARNING: Particle insertion: Less insertions than requested (../fix_insert.cpp:814)
INFO: Particle insertion ins_con: inserted 57 particle templates (mass 4.125791e-02) at step 78401
 - a total of 2810 particle templates (mass 2.033942e+00) inserted so far.
WARNING: Particle insertion: Less insertions than requested (../fix_insert.cpp:814)
INFO: Particle insertion ins_con: inserted 56 particle templates (mass 4.053409e-02) at step 80001
 - a total of 2866 particle templates (mass 2.074477e+00) inserted so far.
WARNING: Particle insertion: Less insertions than requested (../fix_insert.cpp:814)
INFO: Particle insertion ins_con: inserted 55 particle templates (mass 3.981026e-02) at step 81601
 - a total of 2921 particle templates (mass 2.114287e+00) inserted so far.
WARNING: Particle insertion: Less insertions than requested (../fix_insert.cpp:814)
INFO: Particle insertion ins_con: inserted 57 particle templates (mass 4.125791e-02) at step 83201
 - a total of 2978 particle templates (mass 2.155545e+00) inserted so far.
WARNING: Particle insertion: Less insertions than requested (../fix_insert.cpp:814)
INFO: Particle insertion ins_con: inserted 55 particle templates (mass 3.981026e-02) at step 84801
 - a total of 3033 particle templates (mass 2.195355e+00) inserted so far.
WARNING: Particle insertion: Less insertions than requested (../fix_insert.cpp:814)
INFO: Particle insertion ins_con: inserted 55 particle templates (mass 3.981026e-02) at step 86401
 - a total of 3088 particle templates (mass 2.235165e+00) inserted so far.
WARNING: Particle insertion: Less insertions than requested (../fix_insert.cpp:814)
INFO: Particle insertion ins_con: inserted 56 particle templates (mass 4.053409e-02) at step 88001
 - a total of 3144 particle templates (mass 2.275699e+00) inserted so far.
WARNING: Particle insertion: Less insertions than requested (../fix_insert.cpp:814)
INFO: Particle insertion ins_con: inserted 56 particle templates (mass 4.053409e-02) at step 89601
 - a total of 3200 particle templates (mass 2.316233e+00) inserted so far.
WARNING: Particle insertion: Less insertions than requested (../fix_insert.cpp:814)
INFO: Particle insertion ins_con: inserted 56 particle templates (mass 4.053409e-02) at step 91201
 - a total of 3256 particle templates (mass 2.356768e+00) inserted so far.
WARNING: Particle insertion: Less insertions than requested (../fix_insert.cpp:814)
INFO: Particle insertion ins_con: inserted 55 particle templates (mass 3.981026e-02) at step 92801
 - a total of 3311 particle templates (mass 2.396578e+00) inserted so far.
WARNING: Particle insertion: Less insertions than requested (../fix_insert.cpp:814)
INFO: Particle insertion ins_con: inserted 56 particle templates (mass 4.053409e-02) at step 94401
 - a total of 3367 particle templates (mass 2.437112e+00) inserted so far.
WARNING: Particle insertion: Less insertions than requested (../fix_insert.cpp:814)
INFO: Particle insertion ins_con: inserted 57 particle templates (mass 4.125791e-02) at step 96001
 - a total of 3424 particle templates (mass 2.478370e+00) inserted so far.
WARNING: Particle insertion: Less insertions than requested (../fix_insert.cpp:814)
INFO: Particle insertion ins_con: inserted 57 particle templates (mass 4.125791e-02) at step 97601
 - a total of 3481 particle templates (mass 2.519628e+00) inserted so far.
WARNING: Particle insertion: Less insertions than requested (../fix_insert.cpp:814)
INFO: Particle insertion ins_con: inserted 56 particle templates (mass 4.053409e-02) at step 99201
 - a total of 3537 particle templates (mass 2.560162e+00) inserted so far.
WARNING: Particle insertion: Less insertions than requested (../fix_insert.cpp:814)
INFO: Particle insertion ins_con: inserted 56 particle templates (mass 4.053409e-02) at step 100801
 - a total of 3593 particle templates (mass 2.600696e+00) inserted so far.
WARNING: Particle insertion: Less insertions than requested (../fix_insert.cpp:814)
INFO: Particle insertion ins_con: inserted 57 particle templates (mass 4.125791e-02) at step 102401
 - a total of 3650 particle templates (mass 2.641954e+00) inserted so far.
WARNING: Particle insertion: Less insertions than requested (../fix_insert.cpp:814)
INFO: Particle insertion ins_con: inserted 56 particle templates (mass 4.053409e-02) at step 104001
 - a total of 3706 particle templates (mass 2.682488e+00) inserted so far.
WARNING: Particle insertion: Less insertions than requested (../fix_insert.cpp:814)
INFO: Particle insertion ins_con: inserted 56 particle templates (mass 4.053409e-02) at step 105601
 - a total of 3762 particle templates (mass 2.723022e+00) inserted so far.
WARNING: Particle insertion: Less insertions than requested (../fix_insert.cpp:814)
INFO: Particle insertion ins_con: inserted 56 particle templates (mass 4.053409e-02) at step 107201
 - a total of 3818 particle templates (mass 2.763556e+00) inserted so far.
WARNING: Particle insertion: Less insertions than requested (../fix_insert.cpp:814)
INFO: Particle insertion ins_con: inserted 56 particle templates (mass 4.053409e-02) at step 108801
 - a total of 3874 particle templates (mass 2.804090e+00) inserted so far.
WARNING: Particle insertion: Less insertions than requested (../fix_insert.cpp:814)
INFO: Particle insertion ins_con: inserted 57 particle templates (mass 4.125791e-02) at step 110401
 - a total of 3931 particle templates (mass 2.845348e+00) inserted so far.
WARNING: Particle insertion: Less insertions than requested (../fix_insert.cpp:814)
INFO: Particle insertion ins_con: inserted 56 particle templates (mass 4.053409e-02) at step 112001
 - a total of 3987 particle templates (mass 2.885882e+00) inserted so far.
WARNING: Particle insertion: Less insertions than requested (../fix_insert.cpp:814)
INFO: Particle insertion ins_con: inserted 56 particle templates (mass 4.053409e-02) at step 113601
 - a total of 4043 particle templates (mass 2.926416e+00) inserted so far.
WARNING: Particle insertion: Less insertions than requested (../fix_insert.cpp:814)
INFO: Particle insertion ins_con: inserted 57 particle templates (mass 4.125791e-02) at step 115201
 - a total of 4100 particle templates (mass 2.967674e+00) inserted so far.
WARNING: Particle insertion: Less insertions than requested (../fix_insert.cpp:814)
INFO: Particle insertion ins_con: inserted 56 particle templates (mass 4.053409e-02) at step 116801
 - a total of 4156 particle templates (mass 3.008208e+00) inserted so far.
WARNING: Particle insertion: Less insertions than requested (../fix_insert.cpp:814)
INFO: Particle insertion ins_con: inserted 57 particle templates (mass 4.125791e-02) at step 118401
 - a total of 4213 particle templates (mass 3.049466e+00) inserted so far.
WARNING: Particle insertion: Less insertions than requested (../fix_insert.cpp:814)
INFO: Particle insertion ins_con: inserted 56 particle templates (mass 4.053409e-02) at step 120001
 - a total of 4269 particle templates (mass 3.090000e+00) inserted so far.
WARNING: Particle insertion: Less insertions than requested (../fix_insert.cpp:814)
INFO: Particle insertion ins_con: inserted 56 particle templates (mass 4.053409e-02) at step 121601
 - a total of 4325 particle templates (mass 3.130534e+00) inserted so far.
WARNING: Particle insertion: Less insertions than requested (../fix_insert.cpp:814)
INFO: Particle insertion ins_con: inserted 56 particle templates (mass 4.053409e-02) at step 123201
 - a total of 4381 particle templates (mass 3.171068e+00) inserted so far.
WARNING: Particle insertion: Less insertions than requested (../fix_insert.cpp:814)
INFO: Particle insertion ins_con: inserted 56 particle templates (mass 4.053409e-02) at step 124801
 - a total of 4437 particle templates (mass 3.211602e+00) inserted so far.
WARNING: Particle insertion: Less insertions than requested (../fix_insert.cpp:814)
INFO: Particle insertion ins_con: inserted 57 particle templates (mass 4.125791e-02) at step 126401
 - a total of 4494 particle templates (mass 3.252860e+00) inserted so far.
WARNING: Particle insertion: Less insertions than requested (../fix_insert.cpp:814)
INFO: Particle insertion ins_con: inserted 57 particle templates (mass 4.125791e-02) at step 128001
 - a total of 4551 particle templates (mass 3.294118e+00) inserted so far.
WARNING: Particle insertion: Less insertions than requested (../fix_insert.cpp:814)
INFO: Particle insertion ins_con: inserted 55 particle templates (mass 3.981026e-02) at step 129601
 - a total of 4606 particle templates (mass 3.333928e+00) inserted so far.
WARNING: Particle insertion: Less insertions than requested (../fix_insert.cpp:814)
INFO: Particle insertion ins_con: inserted 56 particle templates (mass 4.053409e-02) at step 131201
 - a total of 4662 particle templates (mass 3.374463e+00) inserted so far.
WARNING: Particle insertion: Less insertions than requested (../fix_insert.cpp:814)
INFO: Particle insertion ins_con: inserted 57 particle templates (mass 4.125791e-02) at step 132801
 - a total of 4719 particle templates (mass 3.415720e+00) inserted so far.
WARNING: Particle insertion: Less insertions than requested (../fix_insert.cpp:814)
INFO: Particle insertion ins_con: inserted 57 particle templates (mass 4.125791e-02) at step 134401
 - a total of 4776 particle templates (mass 3.456978e+00) inserted so far.
WARNING: Particle insertion: Less insertions than requested (../fix_insert.cpp:814)
INFO: Particle insertion ins_con: inserted 56 particle templates (mass 4.053409e-02) at step 136001
 - a total of 4832 particle templates (mass 3.497512e+00) inserted so far.
WARNING: Particle insertion: Less insertions than requested (../fix_insert.cpp:814)
INFO: Particle insertion ins_con: inserted 57 particle templates (mass 4.125791e-02) at step 137601
 - a total of 4889 particle templates (mass 3.538770e+00) inserted so far.
WARNING: Particle insertion: Less insertions than requested (../fix_insert.cpp:814)
INFO: Particle insertion ins_con: inserted 56 particle templates (mass 4.053409e-02) at step 139201
 - a total of 4945 particle templates (mass 3.579304e+00) inserted so far.
WARNING: Particle insertion: Less insertions than requested (../fix_insert.cpp:814)
INFO: Particle insertion ins_con: inserted 56 particle templates (mass 4.053409e-02) at step 140801
 - a total of 5001 particle templates (mass 3.619839e+00) inserted so far.
WARNING: Particle insertion: Less insertions than requested (../fix_insert.cpp:814)
INFO: Particle insertion ins_con: inserted 57 particle templates (mass 4.125791e-02) at step 142401
 - a total of 5058 particle templates (mass 3.661096e+00) inserted so far.
WARNING: Particle insertion: Less insertions than requested (../fix_insert.cpp:814)
INFO: Particle insertion ins_con: inserted 55 particle templates (mass 3.981026e-02) at step 144001
 - a total of 5113 particle templates (mass 3.700907e+00) inserted so far.
WARNING: Particle insertion: Less insertions than requested (../fix_insert.cpp:814)
INFO: Particle insertion ins_con: inserted 56 particle templates (mass 4.053409e-02) at step 145601
 - a total of 5169 particle templates (mass 3.741441e+00) inserted so far.
WARNING: Particle insertion: Less insertions than requested (../fix_insert.cpp:814)
INFO: Particle insertion ins_con: inserted 56 particle templates (mass 4.053409e-02) at step 147201
 - a total of 5225 particle templates (mass 3.781975e+00) inserted so far.
WARNING: Particle insertion: Less insertions than requested (../fix_insert.cpp:814)
INFO: Particle insertion ins_con: inserted 57 particle templates (mass 4.125791e-02) at step 148801
 - a total of 5282 particle templates (mass 3.823233e+00) inserted so far.
WARNING: Particle insertion: Less insertions than requested (../fix_insert.cpp:814)
INFO: Particle insertion ins_con: inserted 57 particle templates (mass 4.125791e-02) at step 150401
 - a total of 5339 particle templates (mass 3.864491e+00) inserted so far.
WARNING: Particle insertion: Less insertions than requested (../fix_insert.cpp:814)
INFO: Particle insertion ins_con: inserted 57 particle templates (mass 4.125791e-02) at step 152001
 - a total of 5396 particle templates (mass 3.905749e+00) inserted so far.
WARNING: Particle insertion: Less insertions than requested (../fix_insert.cpp:814)
INFO: Particle insertion ins_con: inserted 57 particle templates (mass 4.125791e-02) at step 153601
 - a total of 5453 particle templates (mass 3.947007e+00) inserted so far.
WARNING: Particle insertion: Less insertions than requested (../fix_insert.cpp:814)
INFO: Particle insertion ins_con: inserted 55 particle templates (mass 3.981026e-02) at step 155201
 - a total of 5508 particle templates (mass 3.986817e+00) inserted so far.
WARNING: Particle insertion: Less insertions than requested (../fix_insert.cpp:814)
INFO: Particle insertion ins_con: inserted 56 particle templates (mass 4.053409e-02) at step 156801
 - a total of 5564 particle templates (mass 4.027351e+00) inserted so far.
WARNING: Particle insertion: Less insertions than requested (../fix_insert.cpp:814)
INFO: Particle insertion ins_con: inserted 55 particle templates (mass 3.981026e-02) at step 158401
 - a total of 5619 particle templates (mass 4.067161e+00) inserted so far.
WARNING: Particle insertion: Less insertions than requested (../fix_insert.cpp:814)
INFO: Particle insertion ins_con: inserted 56 particle templates (mass 4.053409e-02) at step 160001
 - a total of 5675 particle templates (mass 4.107695e+00) inserted so far.
WARNING: Particle insertion: Less insertions than requested (../fix_insert.cpp:814)
INFO: Particle insertion ins_con: inserted 56 particle templates (mass 4.053409e-02) at step 161601
 - a total of 5731 particle templates (mass 4.148229e+00) inserted so far.
WARNING: Particle insertion: Less insertions than requested (../fix_insert.cpp:814)
INFO: Particle insertion ins_con: inserted 56 particle templates (mass 4.053409e-02) at step 163201
 - a total of 5787 particle templates (mass 4.188763e+00) inserted so far.
WARNING: Particle insertion: Less insertions than requested (../fix_insert.cpp:814)
INFO: Particle insertion ins_con: inserted 56 particle templates (mass 4.053409e-02) at step 164801
 - a total of 5843 particle templates (mass 4.229297e+00) inserted so far.
WARNING: Particle insertion: Less insertions than requested (../fix_insert.cpp:814)
INFO: Particle insertion ins_con: inserted 55 particle templates (mass 3.981026e-02) at step 166401
 - a total of 5898 particle templates (mass 4.269108e+00) inserted so far.
WARNING: Particle insertion: Less insertions than requested (../fix_insert.cpp:814)
INFO: Particle insertion ins_con: inserted 57 particle templates (mass 4.125791e-02) at step 168001
 - a total of 5955 particle templates (mass 4.310366e+00) inserted so far.
WARNING: Particle insertion: Less insertions than requested (../fix_insert.cpp:814)
INFO: Particle insertion ins_con: inserted 56 particle templates (mass 4.053409e-02) at step 169601
 - a total of 6011 particle templates (mass 4.350900e+00) inserted so far.
WARNING: Particle insertion: Less insertions than requested (../fix_insert.cpp:814)
INFO: Particle insertion ins_con: inserted 57 particle templates (mass 4.125791e-02) at step 171201
 - a total of 6068 particle templates (mass 4.392158e+00) inserted so far.
WARNING: Particle insertion: Less insertions than requested (../fix_insert.cpp:814)
INFO: Particle insertion ins_con: inserted 57 particle templates (mass 4.125791e-02) at step 172801
 - a total of 6125 particle templates (mass 4.433416e+00) inserted so far.
WARNING: Particle insertion: Less insertions than requested (../fix_insert.cpp:814)
INFO: Particle insertion ins_con: inserted 56 particle templates (mass 4.053409e-02) at step 174401
 - a total of 6181 particle templates (mass 4.473950e+00) inserted so far.
WARNING: Particle insertion: Less insertions than requested (../fix_insert.cpp:814)
INFO: Particle insertion ins_con: inserted 57 particle templates (mass 4.125791e-02) at step 176001
 - a total of 6238 particle templates (mass 4.515208e+00) inserted so far.
WARNING: Particle insertion: Less insertions than requested (../fix_insert.cpp:814)
INFO: Particle insertion ins_con: inserted 57 particle templates (mass 4.125791e-02) at step 177601
 - a total of 6295 particle templates (mass 4.556465e+00) inserted so far.
WARNING: Particle insertion: Less insertions than requested (../fix_insert.cpp:814)
INFO: Particle insertion ins_con: inserted 56 particle templates (mass 4.053409e-02) at step 179201
 - a total of 6351 particle templates (mass 4.597000e+00) inserted so far.
WARNING: Particle insertion: Less insertions than requested (../fix_insert.cpp:814)
INFO: Particle insertion ins_con: inserted 55 particle templates (mass 3.981026e-02) at step 180801
 - a total of 6406 particle templates (mass 4.636810e+00) inserted so far.
WARNING: Particle insertion: Less insertions than requested (../fix_insert.cpp:814)
INFO: Particle insertion ins_con: inserted 56 particle templates (mass 4.053409e-02) at step 182401
 - a total of 6462 particle templates (mass 4.677344e+00) inserted so far.
WARNING: Particle insertion: Less insertions than requested (../fix_insert.cpp:814)
INFO: Particle insertion ins_con: inserted 56 particle templates (mass 4.053409e-02) at step 184001
 - a total of 6518 particle templates (mass 4.717878e+00) inserted so far.
WARNING: Particle insertion: Less insertions than requested (../fix_insert.cpp:814)
INFO: Particle insertion ins_con: inserted 56 particle templates (mass 4.053409e-02) at step 185601
 - a total of 6574 particle templates (mass 4.758412e+00) inserted so far.
WARNING: Particle insertion: Less insertions than requested (../fix_insert.cpp:814)
INFO: Particle insertion ins_con: inserted 57 particle templates (mass 4.125791e-02) at step 187201
 - a total of 6631 particle templates (mass 4.799670e+00) inserted so far.
WARNING: Particle insertion: Less insertions than requested (../fix_insert.cpp:814)
INFO: Particle insertion ins_con: inserted 57 particle templates (mass 4.125791e-02) at step 188801
 - a total of 6688 particle templates (mass 4.840928e+00) inserted so far.
WARNING: Particle insertion: Less insertions than requested (../fix_insert.cpp:814)
INFO: Particle insertion ins_con: inserted 57 particle templates (mass 4.125791e-02) at step 190401
 - a total of 6745 particle templates (mass 4.882186e+00) inserted so far.
WARNING: Particle insertion: Less insertions than requested (../fix_insert.cpp:814)
INFO: Particle insertion ins_con: inserted 56 particle templates (mass 4.053409e-02) at step 192001
 - a total of 6801 particle templates (mass 4.922720e+00) inserted so far.
WARNING: Particle insertion: Less insertions than requested (../fix_insert.cpp:814)
INFO: Particle insertion ins_con: inserted 55 particle templates (mass 3.981026e-02) at step 193601
 - a total of 6856 particle templates (mass 4.962530e+00) inserted so far.
WARNING: Particle insertion: Less insertions than requested (../fix_insert.cpp:814)
INFO: Particle insertion ins_con: inserted 56 particle templates (mass 4.053409e-02) at step 195201
 - a total of 6912 particle templates (mass 5.003064e+00) inserted so far.
WARNING: Particle insertion: Less insertions than requested (../fix_insert.cpp:814)
INFO: Particle insertion ins_con: inserted 56 particle templates (mass 4.053409e-02) at step 196801
 - a total of 6968 particle templates (mass 5.043598e+00) inserted so far.
WARNING: Particle insertion: Less insertions than requested (../fix_insert.cpp:814)
INFO: Particle insertion ins_con: inserted 57 particle templates (mass 4.125791e-02) at step 198401
 - a total of 7025 particle templates (mass 5.084856e+00) inserted so far.
WARNING: Particle insertion: Less insertions than requested (../fix_insert.cpp:814)
INFO: Particle insertion ins_con: inserted 57 particle templates (mass 4.125791e-02) at step 200001
 - a total of 7082 particle templates (mass 5.126114e+00) inserted so far.
WARNING: Particle insertion: Less insertions than requested (../fix_insert.cpp:814)
  200001     7082    0.010356573      1593.3336 
Loop time of 1593.33 on 3 procs for 200000 steps with 7082 atoms, finish time Mon Mar 27 17:38:28 2023


Pair  time (%) = 77.3787 (4.8564)
Neigh time (%) = 32.0159 (2.00937)
Comm  time (%) = 163.706 (10.2745)
Outpt time (%) = 34.016 (2.13489)
Other time (%) = 1286.22 (80.7249)

Nlocal:    2360.67 ave 7025 max 0 min
Histogram: 2 0 0 0 0 0 0 0 0 1
Nghost:    6.33333 ave 16 max 0 min
Histogram: 1 1 0 0 0 0 0 0 0 1
Neighs:    10462 ave 31337 max 0 min
Histogram: 2 0 0 0 0 0 0 0 0 1

Total # of neighbors = 31386
Ave neighs/atom = 4.4318
Neighbor list builds = 24571
Dangerous builds = 0
unfix   ins_con

run     ${settlesteps}
run     10000
Setting up run at Mon Mar 27 17:38:28 2023

Memory usage per processor = 21.165 Mbytes
    Step    Atoms         KinEng            CPU 
  200001     7082    0.010356573              0 
  210001     7082  1.7435008e-05      117.35004 
Loop time of 117.35 on 3 procs for 10000 steps with 7082 atoms, finish time Mon Mar 27 17:40:26 2023


Pair  time (%) = 8.04654 (6.85687)
Neigh time (%) = 1.14739 (0.977746)
Comm  time (%) = 2.47312 (2.10747)
Outpt time (%) = 2.10752 (1.79593)
Other time (%) = 103.575 (88.262)

Nlocal:    2360.67 ave 7082 max 0 min
Histogram: 2 0 0 0 0 0 0 0 0 1
Nghost:    0 ave 0 max 0 min
Histogram: 3 0 0 0 0 0 0 0 0 0
Neighs:    10605.7 ave 31817 max 0 min
Histogram: 2 0 0 0 0 0 0 0 0 1

Total # of neighbors = 31817
Ave neighs/atom = 4.49266
Neighbor list builds = 458
Dangerous builds = 0

fix	Movescrew  all move/mesh mesh screw rotate origin 0 -0.045 0 axis 0 0 1 period ${screwPeriod}
fix	Movescrew  all move/mesh mesh screw rotate origin 0 -0.045 0 axis 0 0 1 period 1.33333333333333
fix	Movescrew_inv  all move/mesh mesh screw_inv rotate origin 0 0.045 0 axis 0 0 -1 period ${screwPeriod}
fix	Movescrew_inv  all move/mesh mesh screw_inv rotate origin 0 0.045 0 axis 0 0 -1 period 1.33333333333333

fix 	ins_acc all insert/stream seed 86028121 distributiontemplate pdd2         mass ${fillmassAcc} massrate ${fillmassrateAcc} overlapcheck yes all_in yes vel constant 0.75 0.75  0          insertion_face ins_mesh_acc extrude_length 0.02
fix 	ins_acc all insert/stream seed 86028121 distributiontemplate pdd2         mass 729 massrate ${fillmassrateAcc} overlapcheck yes all_in yes vel constant 0.75 0.75  0          insertion_face ins_mesh_acc extrude_length 0.02
fix 	ins_acc all insert/stream seed 86028121 distributiontemplate pdd2         mass 729 massrate 36.45 overlapcheck yes all_in yes vel constant 0.75 0.75  0          insertion_face ins_mesh_acc extrude_length 0.02
run     ${mixingSteps}
run     300000
Setting up run at Mon Mar 27 17:40:26 2023

INFO: Particle insertion ins_acc: 8057.218994 particles every 200 steps - particle rate 402860.949701, (mass rate 3.645000e+01)
      8057218 particles (mass 7.289999e+02) within 199800 steps
Memory usage per processor = 21.1729 Mbytes
    Step    Atoms         KinEng            CPU 
  210001     7082  1.7435008e-05              0 
INFO: Particle insertion ins_acc: inserted 4 particle templates (mass 3.619115e-04) at step 210002
 - a total of 4 particle templates (mass 3.619115e-04) inserted so far.
WARNING: Particle insertion: Less insertions than requested (../fix_insert.cpp:814)
INFO: Particle insertion ins_acc: inserted 4 particle templates (mass 3.619115e-04) at step 210202
 - a total of 8 particle templates (mass 7.238229e-04) inserted so far.
WARNING: Particle insertion: Less insertions than requested (../fix_insert.cpp:814)
INFO: Particle insertion ins_acc: inserted 4 particle templates (mass 3.619115e-04) at step 210402
 - a total of 12 particle templates (mass 1.085734e-03) inserted so far.
WARNING: Particle insertion: Less insertions than requested (../fix_insert.cpp:814)
INFO: Particle insertion ins_acc: inserted 4 particle templates (mass 3.619115e-04) at step 210602
 - a total of 16 particle templates (mass 1.447646e-03) inserted so far.
WARNING: Particle insertion: Less insertions than requested (../fix_insert.cpp:814)
INFO: Particle insertion ins_acc: inserted 4 particle templates (mass 3.619115e-04) at step 210802
 - a total of 20 particle templates (mass 1.809557e-03) inserted so far.
WARNING: Particle insertion: Less insertions than requested (../fix_insert.cpp:814)
INFO: Particle insertion ins_acc: inserted 4 particle templates (mass 3.619115e-04) at step 211002
 - a total of 24 particle templates (mass 2.171469e-03) inserted so far.
WARNING: Particle insertion: Less insertions than requested (../fix_insert.cpp:814)
INFO: Particle insertion ins_acc: inserted 4 particle templates (mass 3.619115e-04) at step 211202
 - a total of 28 particle templates (mass 2.533380e-03) inserted so far.
WARNING: Particle insertion: Less insertions than requested (../fix_insert.cpp:814)
INFO: Particle insertion ins_acc: inserted 3 particle templates (mass 2.714336e-04) at step 211402
 - a total of 31 particle templates (mass 2.804814e-03) inserted so far.
WARNING: Particle insertion: Less insertions than requested (../fix_insert.cpp:814)
INFO: Particle insertion ins_acc: inserted 4 particle templates (mass 3.619115e-04) at step 211602
 - a total of 35 particle templates (mass 3.166725e-03) inserted so far.
WARNING: Particle insertion: Less insertions than requested (../fix_insert.cpp:814)
INFO: Particle insertion ins_acc: inserted 3 particle templates (mass 2.714336e-04) at step 211802
 - a total of 38 particle templates (mass 3.438159e-03) inserted so far.
WARNING: Particle insertion: Less insertions than requested (../fix_insert.cpp:814)
INFO: Particle insertion ins_acc: inserted 4 particle templates (mass 3.619115e-04) at step 212002
 - a total of 42 particle templates (mass 3.800070e-03) inserted so far.
WARNING: Particle insertion: Less insertions than requested (../fix_insert.cpp:814)
INFO: Particle insertion ins_acc: inserted 4 particle templates (mass 3.619115e-04) at step 212202
 - a total of 46 particle templates (mass 4.161982e-03) inserted so far.
WARNING: Particle insertion: Less insertions than requested (../fix_insert.cpp:814)
INFO: Particle insertion ins_acc: inserted 4 particle templates (mass 3.619115e-04) at step 212402
 - a total of 50 particle templates (mass 4.523893e-03) inserted so far.
WARNING: Particle insertion: Less insertions than requested (../fix_insert.cpp:814)
INFO: Particle insertion ins_acc: inserted 4 particle templates (mass 3.619115e-04) at step 212602
 - a total of 54 particle templates (mass 4.885805e-03) inserted so far.
WARNING: Particle insertion: Less insertions than requested (../fix_insert.cpp:814)
INFO: Particle insertion ins_acc: inserted 3 particle templates (mass 2.714336e-04) at step 212802
 - a total of 57 particle templates (mass 5.157239e-03) inserted so far.
WARNING: Particle insertion: Less insertions than requested (../fix_insert.cpp:814)
INFO: Particle insertion ins_acc: inserted 4 particle templates (mass 3.619115e-04) at step 213002
 - a total of 61 particle templates (mass 5.519150e-03) inserted so far.
WARNING: Particle insertion: Less insertions than requested (../fix_insert.cpp:814)
INFO: Particle insertion ins_acc: inserted 4 particle templates (mass 3.619115e-04) at step 213202
 - a total of 65 particle templates (mass 5.881061e-03) inserted so far.
WARNING: Particle insertion: Less insertions than requested (../fix_insert.cpp:814)
INFO: Particle insertion ins_acc: inserted 3 particle templates (mass 2.714336e-04) at step 213402
 - a total of 68 particle templates (mass 6.152495e-03) inserted so far.
WARNING: Particle insertion: Less insertions than requested (../fix_insert.cpp:814)
INFO: Particle insertion ins_acc: inserted 4 particle templates (mass 3.619115e-04) at step 213602
 - a total of 72 particle templates (mass 6.514407e-03) inserted so far.
WARNING: Particle insertion: Less insertions than requested (../fix_insert.cpp:814)
INFO: Particle insertion ins_acc: inserted 4 particle templates (mass 3.619115e-04) at step 213802
 - a total of 76 particle templates (mass 6.876318e-03) inserted so far.
WARNING: Particle insertion: Less insertions than requested (../fix_insert.cpp:814)
INFO: Particle insertion ins_acc: inserted 3 particle templates (mass 2.714336e-04) at step 214002
 - a total of 79 particle templates (mass 7.147752e-03) inserted so far.
WARNING: Particle insertion: Less insertions than requested (../fix_insert.cpp:814)
INFO: Particle insertion ins_acc: inserted 4 particle templates (mass 3.619115e-04) at step 214202
 - a total of 83 particle templates (mass 7.509663e-03) inserted so far.
WARNING: Particle insertion: Less insertions than requested (../fix_insert.cpp:814)
INFO: Particle insertion ins_acc: inserted 3 particle templates (mass 2.714336e-04) at step 214402
 - a total of 86 particle templates (mass 7.781097e-03) inserted so far.
WARNING: Particle insertion: Less insertions than requested (../fix_insert.cpp:814)
INFO: Particle insertion ins_acc: inserted 4 particle templates (mass 3.619115e-04) at step 214602
 - a total of 90 particle templates (mass 8.143008e-03) inserted so far.
WARNING: Particle insertion: Less insertions than requested (../fix_insert.cpp:814)
INFO: Particle insertion ins_acc: inserted 4 particle templates (mass 3.619115e-04) at step 214802
 - a total of 94 particle templates (mass 8.504920e-03) inserted so far.
WARNING: Particle insertion: Less insertions than requested (../fix_insert.cpp:814)
INFO: Particle insertion ins_acc: inserted 4 particle templates (mass 3.619115e-04) at step 215002
 - a total of 98 particle templates (mass 8.866831e-03) inserted so far.
WARNING: Particle insertion: Less insertions than requested (../fix_insert.cpp:814)
INFO: Particle insertion ins_acc: inserted 4 particle templates (mass 3.619115e-04) at step 215202
 - a total of 102 particle templates (mass 9.228743e-03) inserted so far.
WARNING: Particle insertion: Less insertions than requested (../fix_insert.cpp:814)
INFO: Particle insertion ins_acc: inserted 5 particle templates (mass 4.523893e-04) at step 215402
 - a total of 107 particle templates (mass 9.681132e-03) inserted so far.
WARNING: Particle insertion: Less insertions than requested (../fix_insert.cpp:814)
INFO: Particle insertion ins_acc: inserted 3 particle templates (mass 2.714336e-04) at step 215602
 - a total of 110 particle templates (mass 9.952566e-03) inserted so far.
WARNING: Particle insertion: Less insertions than requested (../fix_insert.cpp:814)
INFO: Particle insertion ins_acc: inserted 4 particle templates (mass 3.619115e-04) at step 215802
 - a total of 114 particle templates (mass 1.031448e-02) inserted so far.
WARNING: Particle insertion: Less insertions than requested (../fix_insert.cpp:814)
INFO: Particle insertion ins_acc: inserted 4 particle templates (mass 3.619115e-04) at step 216002
 - a total of 118 particle templates (mass 1.067639e-02) inserted so far.
WARNING: Particle insertion: Less insertions than requested (../fix_insert.cpp:814)
INFO: Particle insertion ins_acc: inserted 3 particle templates (mass 2.714336e-04) at step 216202
 - a total of 121 particle templates (mass 1.094782e-02) inserted so far.
WARNING: Particle insertion: Less insertions than requested (../fix_insert.cpp:814)
INFO: Particle insertion ins_acc: inserted 4 particle templates (mass 3.619115e-04) at step 216402
 - a total of 125 particle templates (mass 1.130973e-02) inserted so far.
WARNING: Particle insertion: Less insertions than requested (../fix_insert.cpp:814)
INFO: Particle insertion ins_acc: inserted 4 particle templates (mass 3.619115e-04) at step 216602
 - a total of 129 particle templates (mass 1.167165e-02) inserted so far.
WARNING: Particle insertion: Less insertions than requested (../fix_insert.cpp:814)
INFO: Particle insertion ins_acc: inserted 4 particle templates (mass 3.619115e-04) at step 216802
 - a total of 133 particle templates (mass 1.203356e-02) inserted so far.
WARNING: Particle insertion: Less insertions than requested (../fix_insert.cpp:814)
INFO: Particle insertion ins_acc: inserted 4 particle templates (mass 3.619115e-04) at step 217002
 - a total of 137 particle templates (mass 1.239547e-02) inserted so far.
WARNING: Particle insertion: Less insertions than requested (../fix_insert.cpp:814)
INFO: Particle insertion ins_acc: inserted 3 particle templates (mass 2.714336e-04) at step 217202
 - a total of 140 particle templates (mass 1.266690e-02) inserted so far.
WARNING: Particle insertion: Less insertions than requested (../fix_insert.cpp:814)
INFO: Particle insertion ins_acc: inserted 4 particle templates (mass 3.619115e-04) at step 217402
 - a total of 144 particle templates (mass 1.302881e-02) inserted so far.
WARNING: Particle insertion: Less insertions than requested (../fix_insert.cpp:814)
INFO: Particle insertion ins_acc: inserted 4 particle templates (mass 3.619115e-04) at step 217602
 - a total of 148 particle templates (mass 1.339072e-02) inserted so far.
WARNING: Particle insertion: Less insertions than requested (../fix_insert.cpp:814)
INFO: Particle insertion ins_acc: inserted 4 particle templates (mass 3.619115e-04) at step 217802
 - a total of 152 particle templates (mass 1.375264e-02) inserted so far.
WARNING: Particle insertion: Less insertions than requested (../fix_insert.cpp:814)
INFO: Particle insertion ins_acc: inserted 3 particle templates (mass 2.714336e-04) at step 218002
 - a total of 155 particle templates (mass 1.402407e-02) inserted so far.
WARNING: Particle insertion: Less insertions than requested (../fix_insert.cpp:814)
INFO: Particle insertion ins_acc: inserted 3 particle templates (mass 2.714336e-04) at step 218202
 - a total of 158 particle templates (mass 1.429550e-02) inserted so far.
WARNING: Particle insertion: Less insertions than requested (../fix_insert.cpp:814)
INFO: Particle insertion ins_acc: inserted 4 particle templates (mass 3.619115e-04) at step 218402
 - a total of 162 particle templates (mass 1.465741e-02) inserted so far.
WARNING: Particle insertion: Less insertions than requested (../fix_insert.cpp:814)
INFO: Particle insertion ins_acc: inserted 4 particle templates (mass 3.619115e-04) at step 218602
 - a total of 166 particle templates (mass 1.501933e-02) inserted so far.
WARNING: Particle insertion: Less insertions than requested (../fix_insert.cpp:814)
INFO: Particle insertion ins_acc: inserted 3 particle templates (mass 2.714336e-04) at step 218802
 - a total of 169 particle templates (mass 1.529076e-02) inserted so far.
WARNING: Particle insertion: Less insertions than requested (../fix_insert.cpp:814)
INFO: Particle insertion ins_acc: inserted 4 particle templates (mass 3.619115e-04) at step 219002
 - a total of 173 particle templates (mass 1.565267e-02) inserted so far.
WARNING: Particle insertion: Less insertions than requested (../fix_insert.cpp:814)
INFO: Particle insertion ins_acc: inserted 5 particle templates (mass 4.523893e-04) at step 219202
 - a total of 178 particle templates (mass 1.610506e-02) inserted so far.
WARNING: Particle insertion: Less insertions than requested (../fix_insert.cpp:814)
INFO: Particle insertion ins_acc: inserted 4 particle templates (mass 3.619115e-04) at step 219402
 - a total of 182 particle templates (mass 1.646697e-02) inserted so far.
WARNING: Particle insertion: Less insertions than requested (../fix_insert.cpp:814)
INFO: Particle insertion ins_acc: inserted 4 particle templates (mass 3.619115e-04) at step 219602
 - a total of 186 particle templates (mass 1.682888e-02) inserted so far.
WARNING: Particle insertion: Less insertions than requested (../fix_insert.cpp:814)
INFO: Particle insertion ins_acc: inserted 3 particle templates (mass 2.714336e-04) at step 219802
 - a total of 189 particle templates (mass 1.710032e-02) inserted so far.
WARNING: Particle insertion: Less insertions than requested (../fix_insert.cpp:814)
INFO: Particle insertion ins_acc: inserted 4 particle templates (mass 3.619115e-04) at step 220002
 - a total of 193 particle templates (mass 1.746223e-02) inserted so far.
WARNING: Particle insertion: Less insertions than requested (../fix_insert.cpp:814)
INFO: Particle insertion ins_acc: inserted 3 particle templates (mass 2.714336e-04) at step 220202
 - a total of 196 particle templates (mass 1.773366e-02) inserted so far.
WARNING: Particle insertion: Less insertions than requested (../fix_insert.cpp:814)
INFO: Particle insertion ins_acc: inserted 4 particle templates (mass 3.619115e-04) at step 220402
 - a total of 200 particle templates (mass 1.809557e-02) inserted so far.
WARNING: Particle insertion: Less insertions than requested (../fix_insert.cpp:814)
INFO: Particle insertion ins_acc: inserted 4 particle templates (mass 3.619115e-04) at step 220602
 - a total of 204 particle templates (mass 1.845749e-02) inserted so far.
WARNING: Particle insertion: Less insertions than requested (../fix_insert.cpp:814)
INFO: Particle insertion ins_acc: inserted 4 particle templates (mass 3.619115e-04) at step 220802
 - a total of 208 particle templates (mass 1.881940e-02) inserted so far.
WARNING: Particle insertion: Less insertions than requested (../fix_insert.cpp:814)
INFO: Particle insertion ins_acc: inserted 4 particle templates (mass 3.619115e-04) at step 221002
 - a total of 212 particle templates (mass 1.918131e-02) inserted so far.
WARNING: Particle insertion: Less insertions than requested (../fix_insert.cpp:814)
INFO: Particle insertion ins_acc: inserted 3 particle templates (mass 2.714336e-04) at step 221202
 - a total of 215 particle templates (mass 1.945274e-02) inserted so far.
WARNING: Particle insertion: Less insertions than requested (../fix_insert.cpp:814)
INFO: Particle insertion ins_acc: inserted 3 particle templates (mass 2.714336e-04) at step 221402
 - a total of 218 particle templates (mass 1.972418e-02) inserted so far.
WARNING: Particle insertion: Less insertions than requested (../fix_insert.cpp:814)
INFO: Particle insertion ins_acc: inserted 4 particle templates (mass 3.619115e-04) at step 221602
 - a total of 222 particle templates (mass 2.008609e-02) inserted so far.
WARNING: Particle insertion: Less insertions than requested (../fix_insert.cpp:814)
INFO: Particle insertion ins_acc: inserted 4 particle templates (mass 3.619115e-04) at step 221802
 - a total of 226 particle templates (mass 2.044800e-02) inserted so far.
WARNING: Particle insertion: Less insertions than requested (../fix_insert.cpp:814)
INFO: Particle insertion ins_acc: inserted 4 particle templates (mass 3.619115e-04) at step 222002
 - a total of 230 particle templates (mass 2.080991e-02) inserted so far.
WARNING: Particle insertion: Less insertions than requested (../fix_insert.cpp:814)
INFO: Particle insertion ins_acc: inserted 3 particle templates (mass 2.714336e-04) at step 222202
 - a total of 233 particle templates (mass 2.108134e-02) inserted so far.
WARNING: Particle insertion: Less insertions than requested (../fix_insert.cpp:814)
INFO: Particle insertion ins_acc: inserted 5 particle templates (mass 4.523893e-04) at step 222402
 - a total of 238 particle templates (mass 2.153373e-02) inserted so far.
WARNING: Particle insertion: Less insertions than requested (../fix_insert.cpp:814)
INFO: Particle insertion ins_acc: inserted 4 particle templates (mass 3.619115e-04) at step 222602
 - a total of 242 particle templates (mass 2.189564e-02) inserted so far.
WARNING: Particle insertion: Less insertions than requested (../fix_insert.cpp:814)
INFO: Particle insertion ins_acc: inserted 4 particle templates (mass 3.619115e-04) at step 222802
 - a total of 246 particle templates (mass 2.225756e-02) inserted so far.
WARNING: Particle insertion: Less insertions than requested (../fix_insert.cpp:814)
INFO: Particle insertion ins_acc: inserted 4 particle templates (mass 3.619115e-04) at step 223002
 - a total of 250 particle templates (mass 2.261947e-02) inserted so far.
WARNING: Particle insertion: Less insertions than requested (../fix_insert.cpp:814)
INFO: Particle insertion ins_acc: inserted 4 particle templates (mass 3.619115e-04) at step 223202
 - a total of 254 particle templates (mass 2.298138e-02) inserted so far.
WARNING: Particle insertion: Less insertions than requested (../fix_insert.cpp:814)
INFO: Particle insertion ins_acc: inserted 4 particle templates (mass 3.619115e-04) at step 223402
 - a total of 258 particle templates (mass 2.334329e-02) inserted so far.
WARNING: Particle insertion: Less insertions than requested (../fix_insert.cpp:814)
INFO: Particle insertion ins_acc: inserted 3 particle templates (mass 2.714336e-04) at step 223602
 - a total of 261 particle templates (mass 2.361472e-02) inserted so far.
WARNING: Particle insertion: Less insertions than requested (../fix_insert.cpp:814)
INFO: Particle insertion ins_acc: inserted 3 particle templates (mass 2.714336e-04) at step 223802
 - a total of 264 particle templates (mass 2.388616e-02) inserted so far.
WARNING: Particle insertion: Less insertions than requested (../fix_insert.cpp:814)
INFO: Particle insertion ins_acc: inserted 5 particle templates (mass 4.523893e-04) at step 224002
 - a total of 269 particle templates (mass 2.433855e-02) inserted so far.
WARNING: Particle insertion: Less insertions than requested (../fix_insert.cpp:814)
INFO: Particle insertion ins_acc: inserted 4 particle templates (mass 3.619115e-04) at step 224202
 - a total of 273 particle templates (mass 2.470046e-02) inserted so far.
WARNING: Particle insertion: Less insertions than requested (../fix_insert.cpp:814)
INFO: Particle insertion ins_acc: inserted 3 particle templates (mass 2.714336e-04) at step 224402
 - a total of 276 particle templates (mass 2.497189e-02) inserted so far.
WARNING: Particle insertion: Less insertions than requested (../fix_insert.cpp:814)
INFO: Particle insertion ins_acc: inserted 4 particle templates (mass 3.619115e-04) at step 224602
 - a total of 280 particle templates (mass 2.533380e-02) inserted so far.
WARNING: Particle insertion: Less insertions than requested (../fix_insert.cpp:814)
INFO: Particle insertion ins_acc: inserted 4 particle templates (mass 3.619115e-04) at step 224802
 - a total of 284 particle templates (mass 2.569571e-02) inserted so far.
WARNING: Particle insertion: Less insertions than requested (../fix_insert.cpp:814)
INFO: Particle insertion ins_acc: inserted 3 particle templates (mass 2.714336e-04) at step 225002
 - a total of 287 particle templates (mass 2.596715e-02) inserted so far.
WARNING: Particle insertion: Less insertions than requested (../fix_insert.cpp:814)
INFO: Particle insertion ins_acc: inserted 3 particle templates (mass 2.714336e-04) at step 225202
 - a total of 290 particle templates (mass 2.623858e-02) inserted so far.
WARNING: Particle insertion: Less insertions than requested (../fix_insert.cpp:814)
INFO: Particle insertion ins_acc: inserted 4 particle templates (mass 3.619115e-04) at step 225402
 - a total of 294 particle templates (mass 2.660049e-02) inserted so far.
WARNING: Particle insertion: Less insertions than requested (../fix_insert.cpp:814)
INFO: Particle insertion ins_acc: inserted 4 particle templates (mass 3.619115e-04) at step 225602
 - a total of 298 particle templates (mass 2.696240e-02) inserted so far.
WARNING: Particle insertion: Less insertions than requested (../fix_insert.cpp:814)
INFO: Particle insertion ins_acc: inserted 3 particle templates (mass 2.714336e-04) at step 225802
 - a total of 301 particle templates (mass 2.723384e-02) inserted so far.
WARNING: Particle insertion: Less insertions than requested (../fix_insert.cpp:814)
INFO: Particle insertion ins_acc: inserted 4 particle templates (mass 3.619115e-04) at step 226002
 - a total of 305 particle templates (mass 2.759575e-02) inserted so far.
WARNING: Particle insertion: Less insertions than requested (../fix_insert.cpp:814)
INFO: Particle insertion ins_acc: inserted 4 particle templates (mass 3.619115e-04) at step 226202
 - a total of 309 particle templates (mass 2.795766e-02) inserted so far.
WARNING: Particle insertion: Less insertions than requested (../fix_insert.cpp:814)
INFO: Particle insertion ins_acc: inserted 3 particle templates (mass 2.714336e-04) at step 226402
 - a total of 312 particle templates (mass 2.822909e-02) inserted so far.
WARNING: Particle insertion: Less insertions than requested (../fix_insert.cpp:814)
INFO: Particle insertion ins_acc: inserted 4 particle templates (mass 3.619115e-04) at step 226602
 - a total of 316 particle templates (mass 2.859101e-02) inserted so far.
WARNING: Particle insertion: Less insertions than requested (../fix_insert.cpp:814)
INFO: Particle insertion ins_acc: inserted 4 particle templates (mass 3.619115e-04) at step 226802
 - a total of 320 particle templates (mass 2.895292e-02) inserted so far.
WARNING: Particle insertion: Less insertions than requested (../fix_insert.cpp:814)
INFO: Particle insertion ins_acc: inserted 4 particle templates (mass 3.619115e-04) at step 227002
 - a total of 324 particle templates (mass 2.931483e-02) inserted so far.
WARNING: Particle insertion: Less insertions than requested (../fix_insert.cpp:814)
INFO: Particle insertion ins_acc: inserted 4 particle templates (mass 3.619115e-04) at step 227202
 - a total of 328 particle templates (mass 2.967674e-02) inserted so far.
WARNING: Particle insertion: Less insertions than requested (../fix_insert.cpp:814)
INFO: Particle insertion ins_acc: inserted 4 particle templates (mass 3.619115e-04) at step 227402
 - a total of 332 particle templates (mass 3.003865e-02) inserted so far.
WARNING: Particle insertion: Less insertions than requested (../fix_insert.cpp:814)
INFO: Particle insertion ins_acc: inserted 3 particle templates (mass 2.714336e-04) at step 227602
 - a total of 335 particle templates (mass 3.031009e-02) inserted so far.
WARNING: Particle insertion: Less insertions than requested (../fix_insert.cpp:814)
INFO: Particle insertion ins_acc: inserted 4 particle templates (mass 3.619115e-04) at step 227802
 - a total of 339 particle templates (mass 3.067200e-02) inserted so far.
WARNING: Particle insertion: Less insertions than requested (../fix_insert.cpp:814)
INFO: Particle insertion ins_acc: inserted 3 particle templates (mass 2.714336e-04) at step 228002
 - a total of 342 particle templates (mass 3.094343e-02) inserted so far.
WARNING: Particle insertion: Less insertions than requested (../fix_insert.cpp:814)
INFO: Particle insertion ins_acc: inserted 4 particle templates (mass 3.619115e-04) at step 228202
 - a total of 346 particle templates (mass 3.130534e-02) inserted so far.
WARNING: Particle insertion: Less insertions than requested (../fix_insert.cpp:814)
INFO: Particle insertion ins_acc: inserted 4 particle templates (mass 3.619115e-04) at step 228402
 - a total of 350 particle templates (mass 3.166725e-02) inserted so far.
WARNING: Particle insertion: Less insertions than requested (../fix_insert.cpp:814)
INFO: Particle insertion ins_acc: inserted 4 particle templates (mass 3.619115e-04) at step 228602
 - a total of 354 particle templates (mass 3.202917e-02) inserted so far.
WARNING: Particle insertion: Less insertions than requested (../fix_insert.cpp:814)
INFO: Particle insertion ins_acc: inserted 4 particle templates (mass 3.619115e-04) at step 228802
 - a total of 358 particle templates (mass 3.239108e-02) inserted so far.
WARNING: Particle insertion: Less insertions than requested (../fix_insert.cpp:814)
INFO: Particle insertion ins_acc: inserted 4 particle templates (mass 3.619115e-04) at step 229002
 - a total of 362 particle templates (mass 3.275299e-02) inserted so far.
WARNING: Particle insertion: Less insertions than requested (../fix_insert.cpp:814)
INFO: Particle insertion ins_acc: inserted 4 particle templates (mass 3.619115e-04) at step 229202
 - a total of 366 particle templates (mass 3.311490e-02) inserted so far.
WARNING: Particle insertion: Less insertions than requested (../fix_insert.cpp:814)
INFO: Particle insertion ins_acc: inserted 4 particle templates (mass 3.619115e-04) at step 229402
 - a total of 370 particle templates (mass 3.347681e-02) inserted so far.
WARNING: Particle insertion: Less insertions than requested (../fix_insert.cpp:814)
INFO: Particle insertion ins_acc: inserted 4 particle templates (mass 3.619115e-04) at step 229602
 - a total of 374 particle templates (mass 3.383872e-02) inserted so far.
WARNING: Particle insertion: Less insertions than requested (../fix_insert.cpp:814)
INFO: Particle insertion ins_acc: inserted 3 particle templates (mass 2.714336e-04) at step 229802
 - a total of 377 particle templates (mass 3.411016e-02) inserted so far.
WARNING: Particle insertion: Less insertions than requested (../fix_insert.cpp:814)
INFO: Particle insertion ins_acc: inserted 4 particle templates (mass 3.619115e-04) at step 230002
 - a total of 381 particle templates (mass 3.447207e-02) inserted so far.
WARNING: Particle insertion: Less insertions than requested (../fix_insert.cpp:814)
INFO: Particle insertion ins_acc: inserted 4 particle templates (mass 3.619115e-04) at step 230202
 - a total of 385 particle templates (mass 3.483398e-02) inserted so far.
WARNING: Particle insertion: Less insertions than requested (../fix_insert.cpp:814)
INFO: Particle insertion ins_acc: inserted 4 particle templates (mass 3.619115e-04) at step 230402
 - a total of 389 particle templates (mass 3.519589e-02) inserted so far.
WARNING: Particle insertion: Less insertions than requested (../fix_insert.cpp:814)
INFO: Particle insertion ins_acc: inserted 4 particle templates (mass 3.619115e-04) at step 230602
 - a total of 393 particle templates (mass 3.555780e-02) inserted so far.
WARNING: Particle insertion: Less insertions than requested (../fix_insert.cpp:814)
INFO: Particle insertion ins_acc: inserted 4 particle templates (mass 3.619115e-04) at step 230802
 - a total of 397 particle templates (mass 3.591971e-02) inserted so far.
WARNING: Particle insertion: Less insertions than requested (../fix_insert.cpp:814)
INFO: Particle insertion ins_acc: inserted 4 particle templates (mass 3.619115e-04) at step 231002
 - a total of 401 particle templates (mass 3.628163e-02) inserted so far.
WARNING: Particle insertion: Less insertions than requested (../fix_insert.cpp:814)
INFO: Particle insertion ins_acc: inserted 4 particle templates (mass 3.619115e-04) at step 231202
 - a total of 405 particle templates (mass 3.664354e-02) inserted so far.
WARNING: Particle insertion: Less insertions than requested (../fix_insert.cpp:814)
INFO: Particle insertion ins_acc: inserted 4 particle templates (mass 3.619115e-04) at step 231402
 - a total of 409 particle templates (mass 3.700545e-02) inserted so far.
WARNING: Particle insertion: Less insertions than requested (../fix_insert.cpp:814)
INFO: Particle insertion ins_acc: inserted 3 particle templates (mass 2.714336e-04) at step 231602
 - a total of 412 particle templates (mass 3.727688e-02) inserted so far.
WARNING: Particle insertion: Less insertions than requested (../fix_insert.cpp:814)
INFO: Particle insertion ins_acc: inserted 4 particle templates (mass 3.619115e-04) at step 231802
 - a total of 416 particle templates (mass 3.763879e-02) inserted so far.
WARNING: Particle insertion: Less insertions than requested (../fix_insert.cpp:814)
INFO: Particle insertion ins_acc: inserted 3 particle templates (mass 2.714336e-04) at step 232002
 - a total of 419 particle templates (mass 3.791023e-02) inserted so far.
WARNING: Particle insertion: Less insertions than requested (../fix_insert.cpp:814)
INFO: Particle insertion ins_acc: inserted 5 particle templates (mass 4.523893e-04) at step 232202
 - a total of 424 particle templates (mass 3.836262e-02) inserted so far.
WARNING: Particle insertion: Less insertions than requested (../fix_insert.cpp:814)
INFO: Particle insertion ins_acc: inserted 4 particle templates (mass 3.619115e-04) at step 232402
 - a total of 428 particle templates (mass 3.872453e-02) inserted so far.
WARNING: Particle insertion: Less insertions than requested (../fix_insert.cpp:814)
INFO: Particle insertion ins_acc: inserted 4 particle templates (mass 3.619115e-04) at step 232602
 - a total of 432 particle templates (mass 3.908644e-02) inserted so far.
WARNING: Particle insertion: Less insertions than requested (../fix_insert.cpp:814)
INFO: Particle insertion ins_acc: inserted 4 particle templates (mass 3.619115e-04) at step 232802
 - a total of 436 particle templates (mass 3.944835e-02) inserted so far.
WARNING: Particle insertion: Less insertions than requested (../fix_insert.cpp:814)
INFO: Particle insertion ins_acc: inserted 4 particle templates (mass 3.619115e-04) at step 233002
 - a total of 440 particle templates (mass 3.981026e-02) inserted so far.
WARNING: Particle insertion: Less insertions than requested (../fix_insert.cpp:814)
INFO: Particle insertion ins_acc: inserted 5 particle templates (mass 4.523893e-04) at step 233202
 - a total of 445 particle templates (mass 4.026265e-02) inserted so far.
WARNING: Particle insertion: Less insertions than requested (../fix_insert.cpp:814)
INFO: Particle insertion ins_acc: inserted 4 particle templates (mass 3.619115e-04) at step 233402
 - a total of 449 particle templates (mass 4.062456e-02) inserted so far.
WARNING: Particle insertion: Less insertions than requested (../fix_insert.cpp:814)
INFO: Particle insertion ins_acc: inserted 4 particle templates (mass 3.619115e-04) at step 233602
 - a total of 453 particle templates (mass 4.098647e-02) inserted so far.
WARNING: Particle insertion: Less insertions than requested (../fix_insert.cpp:814)
INFO: Particle insertion ins_acc: inserted 3 particle templates (mass 2.714336e-04) at step 233802
 - a total of 456 particle templates (mass 4.125791e-02) inserted so far.
WARNING: Particle insertion: Less insertions than requested (../fix_insert.cpp:814)
INFO: Particle insertion ins_acc: inserted 4 particle templates (mass 3.619115e-04) at step 234002
[...]
 - a total of 5385 particle templates (mass 4.872233e-01) inserted so far.
WARNING: Particle insertion: Less insertions than requested (../fix_insert.cpp:814)
INFO: Particle insertion ins_acc: inserted 3 particle templates (mass 2.714336e-04) at step 495202
 - a total of 5388 particle templates (mass 4.874948e-01) inserted so far.
WARNING: Particle insertion: Less insertions than requested (../fix_insert.cpp:814)
INFO: Particle insertion ins_acc: inserted 4 particle templates (mass 3.619115e-04) at step 495402
 - a total of 5392 particle templates (mass 4.878567e-01) inserted so far.
WARNING: Particle insertion: Less insertions than requested (../fix_insert.cpp:814)
INFO: Particle insertion ins_acc: inserted 4 particle templates (mass 3.619115e-04) at step 495602
 - a total of 5396 particle templates (mass 4.882186e-01) inserted so far.
WARNING: Particle insertion: Less insertions than requested (../fix_insert.cpp:814)
INFO: Particle insertion ins_acc: inserted 4 particle templates (mass 3.619115e-04) at step 495802
 - a total of 5400 particle templates (mass 4.885805e-01) inserted so far.
WARNING: Particle insertion: Less insertions than requested (../fix_insert.cpp:814)
INFO: Particle insertion ins_acc: inserted 3 particle templates (mass 2.714336e-04) at step 496002
 - a total of 5403 particle templates (mass 4.888519e-01) inserted so far.
WARNING: Particle insertion: Less insertions than requested (../fix_insert.cpp:814)
INFO: Particle insertion ins_acc: inserted 3 particle templates (mass 2.714336e-04) at step 496202
 - a total of 5406 particle templates (mass 4.891234e-01) inserted so far.
WARNING: Particle insertion: Less insertions than requested (../fix_insert.cpp:814)
INFO: Particle insertion ins_acc: inserted 5 particle templates (mass 4.523893e-04) at step 496402
 - a total of 5411 particle templates (mass 4.895757e-01) inserted so far.
WARNING: Particle insertion: Less insertions than requested (../fix_insert.cpp:814)
INFO: Particle insertion ins_acc: inserted 3 particle templates (mass 2.714336e-04) at step 496602
 - a total of 5414 particle templates (mass 4.898472e-01) inserted so far.
WARNING: Particle insertion: Less insertions than requested (../fix_insert.cpp:814)
INFO: Particle insertion ins_acc: inserted 4 particle templates (mass 3.619115e-04) at step 496802
 - a total of 5418 particle templates (mass 4.902091e-01) inserted so far.
WARNING: Particle insertion: Less insertions than requested (../fix_insert.cpp:814)
INFO: Particle insertion ins_acc: inserted 4 particle templates (mass 3.619115e-04) at step 497002
 - a total of 5422 particle templates (mass 4.905710e-01) inserted so far.
WARNING: Particle insertion: Less insertions than requested (../fix_insert.cpp:814)
INFO: Particle insertion ins_acc: inserted 3 particle templates (mass 2.714336e-04) at step 497202
 - a total of 5425 particle templates (mass 4.908424e-01) inserted so far.
WARNING: Particle insertion: Less insertions than requested (../fix_insert.cpp:814)
INFO: Particle insertion ins_acc: inserted 3 particle templates (mass 2.714336e-04) at step 497402
 - a total of 5428 particle templates (mass 4.911139e-01) inserted so far.
WARNING: Particle insertion: Less insertions than requested (../fix_insert.cpp:814)
INFO: Particle insertion ins_acc: inserted 4 particle templates (mass 3.619115e-04) at step 497602
 - a total of 5432 particle templates (mass 4.914758e-01) inserted so far.
WARNING: Particle insertion: Less insertions than requested (../fix_insert.cpp:814)
INFO: Particle insertion ins_acc: inserted 4 particle templates (mass 3.619115e-04) at step 497802
 - a total of 5436 particle templates (mass 4.918377e-01) inserted so far.
WARNING: Particle insertion: Less insertions than requested (../fix_insert.cpp:814)
INFO: Particle insertion ins_acc: inserted 4 particle templates (mass 3.619115e-04) at step 498002
 - a total of 5440 particle templates (mass 4.921996e-01) inserted so far.
WARNING: Particle insertion: Less insertions than requested (../fix_insert.cpp:814)
INFO: Particle insertion ins_acc: inserted 4 particle templates (mass 3.619115e-04) at step 498202
 - a total of 5444 particle templates (mass 4.925615e-01) inserted so far.
WARNING: Particle insertion: Less insertions than requested (../fix_insert.cpp:814)
INFO: Particle insertion ins_acc: inserted 4 particle templates (mass 3.619115e-04) at step 498402
 - a total of 5448 particle templates (mass 4.929234e-01) inserted so far.
WARNING: Particle insertion: Less insertions than requested (../fix_insert.cpp:814)
INFO: Particle insertion ins_acc: inserted 4 particle templates (mass 3.619115e-04) at step 498602
 - a total of 5452 particle templates (mass 4.932853e-01) inserted so far.
WARNING: Particle insertion: Less insertions than requested (../fix_insert.cpp:814)
INFO: Particle insertion ins_acc: inserted 4 particle templates (mass 3.619115e-04) at step 498802
 - a total of 5456 particle templates (mass 4.936473e-01) inserted so far.
WARNING: Particle insertion: Less insertions than requested (../fix_insert.cpp:814)
INFO: Particle insertion ins_acc: inserted 3 particle templates (mass 2.714336e-04) at step 499002
 - a total of 5459 particle templates (mass 4.939187e-01) inserted so far.
WARNING: Particle insertion: Less insertions than requested (../fix_insert.cpp:814)
INFO: Particle insertion ins_acc: inserted 4 particle templates (mass 3.619115e-04) at step 499202
 - a total of 5463 particle templates (mass 4.942806e-01) inserted so far.
WARNING: Particle insertion: Less insertions than requested (../fix_insert.cpp:814)
INFO: Particle insertion ins_acc: inserted 4 particle templates (mass 3.619115e-04) at step 499402
 - a total of 5467 particle templates (mass 4.946425e-01) inserted so far.
WARNING: Particle insertion: Less insertions than requested (../fix_insert.cpp:814)
INFO: Particle insertion ins_acc: inserted 3 particle templates (mass 2.714336e-04) at step 499602
 - a total of 5470 particle templates (mass 4.949139e-01) inserted so far.
WARNING: Particle insertion: Less insertions than requested (../fix_insert.cpp:814)
INFO: Particle insertion ins_acc: inserted 4 particle templates (mass 3.619115e-04) at step 499802
 - a total of 5474 particle templates (mass 4.952759e-01) inserted so far.
WARNING: Particle insertion: Less insertions than requested (../fix_insert.cpp:814)
INFO: Particle insertion ins_acc: inserted 4 particle templates (mass 3.619115e-04) at step 500002
 - a total of 5478 particle templates (mass 4.956378e-01) inserted so far.
WARNING: Particle insertion: Less insertions than requested (../fix_insert.cpp:814)
INFO: Particle insertion ins_acc: inserted 4 particle templates (mass 3.619115e-04) at step 500202
 - a total of 5482 particle templates (mass 4.959997e-01) inserted so far.
WARNING: Particle insertion: Less insertions than requested (../fix_insert.cpp:814)
INFO: Particle insertion ins_acc: inserted 4 particle templates (mass 3.619115e-04) at step 500402
 - a total of 5486 particle templates (mass 4.963616e-01) inserted so far.
WARNING: Particle insertion: Less insertions than requested (../fix_insert.cpp:814)
INFO: Particle insertion ins_acc: inserted 4 particle templates (mass 3.619115e-04) at step 500602
 - a total of 5490 particle templates (mass 4.967235e-01) inserted so far.
WARNING: Particle insertion: Less insertions than requested (../fix_insert.cpp:814)
INFO: Particle insertion ins_acc: inserted 4 particle templates (mass 3.619115e-04) at step 500802
 - a total of 5494 particle templates (mass 4.970854e-01) inserted so far.
WARNING: Particle insertion: Less insertions than requested (../fix_insert.cpp:814)
INFO: Particle insertion ins_acc: inserted 3 particle templates (mass 2.714336e-04) at step 501002
 - a total of 5497 particle templates (mass 4.973568e-01) inserted so far.
WARNING: Particle insertion: Less insertions than requested (../fix_insert.cpp:814)
INFO: Particle insertion ins_acc: inserted 4 particle templates (mass 3.619115e-04) at step 501202
 - a total of 5501 particle templates (mass 4.977188e-01) inserted so far.
WARNING: Particle insertion: Less insertions than requested (../fix_insert.cpp:814)
INFO: Particle insertion ins_acc: inserted 3 particle templates (mass 2.714336e-04) at step 501402
 - a total of 5504 particle templates (mass 4.979902e-01) inserted so far.
WARNING: Particle insertion: Less insertions than requested (../fix_insert.cpp:814)
INFO: Particle insertion ins_acc: inserted 3 particle templates (mass 2.714336e-04) at step 501602
 - a total of 5507 particle templates (mass 4.982616e-01) inserted so far.
WARNING: Particle insertion: Less insertions than requested (../fix_insert.cpp:814)
INFO: Particle insertion ins_acc: inserted 5 particle templates (mass 4.523893e-04) at step 501802
 - a total of 5512 particle templates (mass 4.987140e-01) inserted so far.
WARNING: Particle insertion: Less insertions than requested (../fix_insert.cpp:814)
INFO: Particle insertion ins_acc: inserted 4 particle templates (mass 3.619115e-04) at step 502002
 - a total of 5516 particle templates (mass 4.990759e-01) inserted so far.
WARNING: Particle insertion: Less insertions than requested (../fix_insert.cpp:814)
INFO: Particle insertion ins_acc: inserted 4 particle templates (mass 3.619115e-04) at step 502202
 - a total of 5520 particle templates (mass 4.994378e-01) inserted so far.
WARNING: Particle insertion: Less insertions than requested (../fix_insert.cpp:814)
INFO: Particle insertion ins_acc: inserted 4 particle templates (mass 3.619115e-04) at step 502402
 - a total of 5524 particle templates (mass 4.997997e-01) inserted so far.
WARNING: Particle insertion: Less insertions than requested (../fix_insert.cpp:814)
INFO: Particle insertion ins_acc: inserted 4 particle templates (mass 3.619115e-04) at step 502602
 - a total of 5528 particle templates (mass 5.001617e-01) inserted so far.
WARNING: Particle insertion: Less insertions than requested (../fix_insert.cpp:814)
INFO: Particle insertion ins_acc: inserted 4 particle templates (mass 3.619115e-04) at step 502802
 - a total of 5532 particle templates (mass 5.005236e-01) inserted so far.
WARNING: Particle insertion: Less insertions than requested (../fix_insert.cpp:814)
INFO: Particle insertion ins_acc: inserted 4 particle templates (mass 3.619115e-04) at step 503002
 - a total of 5536 particle templates (mass 5.008855e-01) inserted so far.
WARNING: Particle insertion: Less insertions than requested (../fix_insert.cpp:814)
INFO: Particle insertion ins_acc: inserted 4 particle templates (mass 3.619115e-04) at step 503202
 - a total of 5540 particle templates (mass 5.012474e-01) inserted so far.
WARNING: Particle insertion: Less insertions than requested (../fix_insert.cpp:814)
INFO: Particle insertion ins_acc: inserted 5 particle templates (mass 4.523893e-04) at step 503402
 - a total of 5545 particle templates (mass 5.016998e-01) inserted so far.
WARNING: Particle insertion: Less insertions than requested (../fix_insert.cpp:814)
INFO: Particle insertion ins_acc: inserted 4 particle templates (mass 3.619115e-04) at step 503602
 - a total of 5549 particle templates (mass 5.020617e-01) inserted so far.
WARNING: Particle insertion: Less insertions than requested (../fix_insert.cpp:814)
INFO: Particle insertion ins_acc: inserted 3 particle templates (mass 2.714336e-04) at step 503802
 - a total of 5552 particle templates (mass 5.023331e-01) inserted so far.
WARNING: Particle insertion: Less insertions than requested (../fix_insert.cpp:814)
INFO: Particle insertion ins_acc: inserted 5 particle templates (mass 4.523893e-04) at step 504002
 - a total of 5557 particle templates (mass 5.027855e-01) inserted so far.
WARNING: Particle insertion: Less insertions than requested (../fix_insert.cpp:814)
INFO: Particle insertion ins_acc: inserted 4 particle templates (mass 3.619115e-04) at step 504202
 - a total of 5561 particle templates (mass 5.031474e-01) inserted so far.
WARNING: Particle insertion: Less insertions than requested (../fix_insert.cpp:814)
INFO: Particle insertion ins_acc: inserted 4 particle templates (mass 3.619115e-04) at step 504402
 - a total of 5565 particle templates (mass 5.035093e-01) inserted so far.
WARNING: Particle insertion: Less insertions than requested (../fix_insert.cpp:814)
INFO: Particle insertion ins_acc: inserted 4 particle templates (mass 3.619115e-04) at step 504602
 - a total of 5569 particle templates (mass 5.038712e-01) inserted so far.
WARNING: Particle insertion: Less insertions than requested (../fix_insert.cpp:814)
INFO: Particle insertion ins_acc: inserted 4 particle templates (mass 3.619115e-04) at step 504802
 - a total of 5573 particle templates (mass 5.042332e-01) inserted so far.
WARNING: Particle insertion: Less insertions than requested (../fix_insert.cpp:814)
INFO: Particle insertion ins_acc: inserted 4 particle templates (mass 3.619115e-04) at step 505002
 - a total of 5577 particle templates (mass 5.045951e-01) inserted so far.
WARNING: Particle insertion: Less insertions than requested (../fix_insert.cpp:814)
INFO: Particle insertion ins_acc: inserted 3 particle templates (mass 2.714336e-04) at step 505202
 - a total of 5580 particle templates (mass 5.048665e-01) inserted so far.
WARNING: Particle insertion: Less insertions than requested (../fix_insert.cpp:814)
INFO: Particle insertion ins_acc: inserted 4 particle templates (mass 3.619115e-04) at step 505402
 - a total of 5584 particle templates (mass 5.052284e-01) inserted so far.
WARNING: Particle insertion: Less insertions than requested (../fix_insert.cpp:814)
INFO: Particle insertion ins_acc: inserted 3 particle templates (mass 2.714336e-04) at step 505602
 - a total of 5587 particle templates (mass 5.054999e-01) inserted so far.
WARNING: Particle insertion: Less insertions than requested (../fix_insert.cpp:814)
INFO: Particle insertion ins_acc: inserted 4 particle templates (mass 3.619115e-04) at step 505802
 - a total of 5591 particle templates (mass 5.058618e-01) inserted so far.
WARNING: Particle insertion: Less insertions than requested (../fix_insert.cpp:814)
INFO: Particle insertion ins_acc: inserted 3 particle templates (mass 2.714336e-04) at step 506002
 - a total of 5594 particle templates (mass 5.061332e-01) inserted so far.
WARNING: Particle insertion: Less insertions than requested (../fix_insert.cpp:814)
INFO: Particle insertion ins_acc: inserted 4 particle templates (mass 3.619115e-04) at step 506202
 - a total of 5598 particle templates (mass 5.064951e-01) inserted so far.
WARNING: Particle insertion: Less insertions than requested (../fix_insert.cpp:814)
INFO: Particle insertion ins_acc: inserted 4 particle templates (mass 3.619115e-04) at step 506402
 - a total of 5602 particle templates (mass 5.068570e-01) inserted so far.
WARNING: Particle insertion: Less insertions than requested (../fix_insert.cpp:814)
INFO: Particle insertion ins_acc: inserted 4 particle templates (mass 3.619115e-04) at step 506602
 - a total of 5606 particle templates (mass 5.072189e-01) inserted so far.
WARNING: Particle insertion: Less insertions than requested (../fix_insert.cpp:814)
INFO: Particle insertion ins_acc: inserted 4 particle templates (mass 3.619115e-04) at step 506802
 - a total of 5610 particle templates (mass 5.075808e-01) inserted so far.
WARNING: Particle insertion: Less insertions than requested (../fix_insert.cpp:814)
INFO: Particle insertion ins_acc: inserted 4 particle templates (mass 3.619115e-04) at step 507002
 - a total of 5614 particle templates (mass 5.079428e-01) inserted so far.
WARNING: Particle insertion: Less insertions than requested (../fix_insert.cpp:814)
INFO: Particle insertion ins_acc: inserted 3 particle templates (mass 2.714336e-04) at step 507202
 - a total of 5617 particle templates (mass 5.082142e-01) inserted so far.
WARNING: Particle insertion: Less insertions than requested (../fix_insert.cpp:814)
INFO: Particle insertion ins_acc: inserted 4 particle templates (mass 3.619115e-04) at step 507402
 - a total of 5621 particle templates (mass 5.085761e-01) inserted so far.
WARNING: Particle insertion: Less insertions than requested (../fix_insert.cpp:814)
INFO: Particle insertion ins_acc: inserted 5 particle templates (mass 4.523893e-04) at step 507602
 - a total of 5626 particle templates (mass 5.090285e-01) inserted so far.
WARNING: Particle insertion: Less insertions than requested (../fix_insert.cpp:814)
INFO: Particle insertion ins_acc: inserted 4 particle templates (mass 3.619115e-04) at step 507802
 - a total of 5630 particle templates (mass 5.093904e-01) inserted so far.
WARNING: Particle insertion: Less insertions than requested (../fix_insert.cpp:814)
INFO: Particle insertion ins_acc: inserted 4 particle templates (mass 3.619115e-04) at step 508002
 - a total of 5634 particle templates (mass 5.097523e-01) inserted so far.
WARNING: Particle insertion: Less insertions than requested (../fix_insert.cpp:814)
INFO: Particle insertion ins_acc: inserted 4 particle templates (mass 3.619115e-04) at step 508202
 - a total of 5638 particle templates (mass 5.101142e-01) inserted so far.
WARNING: Particle insertion: Less insertions than requested (../fix_insert.cpp:814)
INFO: Particle insertion ins_acc: inserted 4 particle templates (mass 3.619115e-04) at step 508402
 - a total of 5642 particle templates (mass 5.104761e-01) inserted so far.
WARNING: Particle insertion: Less insertions than requested (../fix_insert.cpp:814)
INFO: Particle insertion ins_acc: inserted 4 particle templates (mass 3.619115e-04) at step 508602
 - a total of 5646 particle templates (mass 5.108380e-01) inserted so far.
WARNING: Particle insertion: Less insertions than requested (../fix_insert.cpp:814)
INFO: Particle insertion ins_acc: inserted 5 particle templates (mass 4.523893e-04) at step 508802
 - a total of 5651 particle templates (mass 5.112904e-01) inserted so far.
WARNING: Particle insertion: Less insertions than requested (../fix_insert.cpp:814)
INFO: Particle insertion ins_acc: inserted 4 particle templates (mass 3.619115e-04) at step 509002
 - a total of 5655 particle templates (mass 5.116523e-01) inserted so far.
WARNING: Particle insertion: Less insertions than requested (../fix_insert.cpp:814)
INFO: Particle insertion ins_acc: inserted 4 particle templates (mass 3.619115e-04) at step 509202
 - a total of 5659 particle templates (mass 5.120143e-01) inserted so far.
WARNING: Particle insertion: Less insertions than requested (../fix_insert.cpp:814)
INFO: Particle insertion ins_acc: inserted 3 particle templates (mass 2.714336e-04) at step 509402
 - a total of 5662 particle templates (mass 5.122857e-01) inserted so far.
WARNING: Particle insertion: Less insertions than requested (../fix_insert.cpp:814)
INFO: Particle insertion ins_acc: inserted 3 particle templates (mass 2.714336e-04) at step 509602
 - a total of 5665 particle templates (mass 5.125571e-01) inserted so far.
WARNING: Particle insertion: Less insertions than requested (../fix_insert.cpp:814)
INFO: Particle insertion ins_acc: inserted 4 particle templates (mass 3.619115e-04) at step 509802
 - a total of 5669 particle templates (mass 5.129190e-01) inserted so far.
WARNING: Particle insertion: Less insertions than requested (../fix_insert.cpp:814)
  510001    12669    0.093481577      13848.339 
Loop time of 13848.3 on 3 procs for 300000 steps with 12669 atoms, finish time Mon Mar 27 21:31:14 2023


Pair  time (%) = 290.688 (2.09908)
Neigh time (%) = 167.856 (1.2121)
Comm  time (%) = 436.349 (3.15091)
Outpt time (%) = 78.2757 (0.565235)
Other time (%) = 12875.2 (92.9727)

Nlocal:    4223 ave 12669 max 0 min
Histogram: 2 0 0 0 0 0 0 0 0 1
Nghost:    0.666667 ave 2 max 0 min
Histogram: 2 0 0 0 0 0 0 0 0 1
Neighs:    20272.7 ave 60818 max 0 min
Histogram: 2 0 0 0 0 0 0 0 0 1

Total # of neighbors = 60818
Ave neighs/atom = 4.80054
Neighbor list builds = 43631
Dangerous builds = 6410

unfix   ins_acc
unfix	Movescrew
unfix	Movescrew_inv

write_restart resrart/reactor.restart
