LIGGGHTS (Version LIGGGHTS-PUBLIC 3.8.0, compiled 2023-03-15-17:42:14 by weitinglinux, git commit 9fb7f67592be9304afca9cb6840892b3b7d048d6)
###Header for General commands###

#Simulation of particles
atom_style	granular
boundary	f f f			        #fixed boundaries -> particles will be deleted if leaving the simulation box
units		si
communicate	single vel yes	#default

newton		off				#default

###System variables###

#Definition of boundaries [m]
variable xmin equal -0.2
variable xmax equal 0.2

variable ymin equal -0.3
variable ymax equal 0.3

variable zmin equal -0.3
variable zmax equal 0.5

#Definition of the timestep
#timestep = 0.0001 second; Each iteration step represents 0.0001 seconds.
variable dt equal 1e-4


###Specific variables for current simulation####

variable natoms equal 2 	        #1 -> particle #2->funnel, screw, and screw_inv

#Variable for material properties#

#Young Modulus
#soft_particles yes
variable	youngModulusCon 	equal 	5e6	#N/mm² (30 to 50Gpa)
variable	youngModulus    	equal 	5e6	#N/mm² (30 to 50Gpa)

variable	youngModulusAcc 	equal 	2e4	#N/mm² (10Gpa)

#Poission ratio
variable 	poissionCon1	equal	0.3
variable 	poissionCon2	equal	0.3
variable 	poissionAcc	equal	0.25

#variable for contact properties#

#coefficient of restitution
variable	CoR11	equal	0.6
variable	CoR12	equal	0.6
variable	CoR21	equal	0.6
variable	CoR22	equal	0.6

#sliding friction coefficient
variable	sf11	equal	0.5
variable	sf12	equal	0.5
variable	sf21	equal	0.5
variable	sf22	equal	0.5

#rolling friction coefficient
variable	rf11	equal	0.05
variable	rf12	equal	0.05
variable	rf21	equal	0.05
variable	rf22	equal	0.05


#Variable for particle##

#Number of particle radius
variable	nradii	equal	2

#Concrete particles

variable	radiusCon1	equal	0.004	#m Fine aggregates
variable	radiusCon2	equal	0.008	#m Coarse aggregates

variable	frac1	        equal	0.7		#70%
variable	frac2	        equal	0.3		#30%

variable	densityCon	equal	2700	        #kg/m³ #aggregate desnsity


#Accelerator particles

variable	radiusAcc	equal	0.002	        #m
variable	densityAcc	equal	1200	        #kg/m³

#filling parameters#

##define the flowrate
variable        timeFactor	equal	10.0				#60 seconds
variable        filltime	equal	30.0				#60 seconds
variable        fillVoulume     equal   3                             	#Liter

#fill concrete
variable	fillmass	equal	${densityCon}*(${fillVoulume}/1000)	#kg
variable	fillmass	equal	2700*(${fillVoulume}/1000)	
variable	fillmass	equal	2700*(3/1000)	
variable	fillmassrate	equal	${fillmass}/${filltime}	                #kg/s
variable	fillmassrate	equal	8.1/${filltime}	                
variable	fillmassrate	equal	8.1/30	                

#fill concrete
variable        factor          equal   0.05
variable	fillmassAcc	equal	${densityAcc}*${fillmass}*${factor}     #kg
variable	fillmassAcc	equal	1200*${fillmass}*${factor}     
variable	fillmassAcc	equal	1200*8.1*${factor}     
variable	fillmassAcc	equal	1200*8.1*0.05     
variable	fillmassrateAcc	equal	${fillmassAcc}/${filltime}	        #kg
variable	fillmassrateAcc	equal	486/${filltime}	        
variable	fillmassrateAcc	equal	486/30	        

variable	fillsteps	equal	${filltime}/${dt}		#Transform time to iteration steps
variable	fillsteps	equal	30/${dt}		
variable	fillsteps	equal	30/0.0001		

## define the speed
# rpm = roataion per minute
# ex. 60 rpm = 60 rev/min = 1 rev/s
variable        screwSpeed      equal   80.0                             #rpm
variable        screwPeriod     equal   ${screwSpeed}/60.0               #s/rev ,period of the srew rotation (time for 1 rotation)
variable        screwPeriod     equal   80/60.0               



####settle time####
variable	settletime	equal	1.0                             #second
variable	settlesteps	equal	${settletime}/${dt}		#Transform time to iteration steps
variable	settlesteps	equal	1/${dt}		
variable	settlesteps	equal	1/0.0001		


####mixing time####
variable	mixingTime	equal	30.0                              #sec
variable	mixingSteps	equal	${mixingTime}/${dt}		#Transform time to iteration steps
variable	mixingSteps	equal	30/${dt}		
variable	mixingSteps	equal	30/0.0001		


####Definition of simulationbox####
region		domain block ${xmin} ${xmax} ${ymin} ${ymax} ${zmin} ${zmax} units box
region		domain block -0.2 ${xmax} ${ymin} ${ymax} ${zmin} ${zmax} units box
region		domain block -0.2 0.2 ${ymin} ${ymax} ${zmin} ${zmax} units box
region		domain block -0.2 0.2 -0.3 ${ymax} ${zmin} ${zmax} units box
region		domain block -0.2 0.2 -0.3 0.3 ${zmin} ${zmax} units box
region		domain block -0.2 0.2 -0.3 0.3 -0.3 ${zmax} units box
region		domain block -0.2 0.2 -0.3 0.3 -0.3 0.5 units box
create_box	2 domain
Created orthogonal box = (-0.2 -0.3 -0.3) to (0.2 0.3 0.5)
  1 by 2 by 3 MPI processor grid
neighbor	0.008 bin		# 2x of particle radius may be good
neigh_modify	delay 0		        #default


####Definition of the contact models####

pair_style gran model hertz tangential history rolling_friction epsd2	#contact model
WARNING: 
	The contact model you specified is not located in any whitelist.
	Because of this the model will be run in an unoptimized version (increasing runtime by up to 20%).
	In order to optimize this model you have the following options:
		(i)  Run the genAutoExamplesWhitelist.sh script in your LIGGGHTS(R) source folder to automatically parse the input script
		(ii) Add the model combination by hand to your style_contact_model_user.whitelist that can be found in your LIGGGHTS(R) source folder
		(iii) Use the ENABLE_MODEL_* flag when building with cmake.
	If you perform one of the steps above LIGGGHTS(R) needs to be recompiled to generate the optimized code.

 (../contact_models.h:365)
pair_coeff * * 								#default

timestep ${dt}
timestep 0.0001

fix	integrator all nve/sphere			#default
fix	gravi all gravity 9.81 vector 0.0 0.0 -1.0	#gravity of 9.81 m/s² in negative z direction



###efinition of Material properties####

fix 	m1 all property/global youngsModulus peratomtype ${youngModulusCon} ${youngModulus}
fix 	m1 all property/global youngsModulus peratomtype 5000000 ${youngModulus}
fix 	m1 all property/global youngsModulus peratomtype 5000000 5000000
fix 	m2 all property/global poissonsRatio peratomtype ${poissionCon1} ${poissionAcc}
fix 	m2 all property/global poissonsRatio peratomtype 0.3 ${poissionAcc}
fix 	m2 all property/global poissonsRatio peratomtype 0.3 0.25
fix 	m3 all property/global coefficientRestitution peratomtypepair ${natoms} ${CoR11} ${CoR12} ${CoR21} ${CoR22}
fix 	m3 all property/global coefficientRestitution peratomtypepair 2 ${CoR11} ${CoR12} ${CoR21} ${CoR22}
fix 	m3 all property/global coefficientRestitution peratomtypepair 2 0.6 ${CoR12} ${CoR21} ${CoR22}
fix 	m3 all property/global coefficientRestitution peratomtypepair 2 0.6 0.6 ${CoR21} ${CoR22}
fix 	m3 all property/global coefficientRestitution peratomtypepair 2 0.6 0.6 0.6 ${CoR22}
fix 	m3 all property/global coefficientRestitution peratomtypepair 2 0.6 0.6 0.6 0.6
fix 	m4 all property/global coefficientFriction peratomtypepair ${natoms} ${sf11} ${sf12} ${sf21} ${sf22}
fix 	m4 all property/global coefficientFriction peratomtypepair 2 ${sf11} ${sf12} ${sf21} ${sf22}
fix 	m4 all property/global coefficientFriction peratomtypepair 2 0.5 ${sf12} ${sf21} ${sf22}
fix 	m4 all property/global coefficientFriction peratomtypepair 2 0.5 0.5 ${sf21} ${sf22}
fix 	m4 all property/global coefficientFriction peratomtypepair 2 0.5 0.5 0.5 ${sf22}
fix 	m4 all property/global coefficientFriction peratomtypepair 2 0.5 0.5 0.5 0.5
fix 	m5 all property/global coefficientRollingFriction peratomtypepair ${natoms} ${rf11} ${rf12} ${rf21} ${rf22}
fix 	m5 all property/global coefficientRollingFriction peratomtypepair 2 ${rf11} ${rf12} ${rf21} ${rf22}
fix 	m5 all property/global coefficientRollingFriction peratomtypepair 2 0.05 ${rf12} ${rf21} ${rf22}
fix 	m5 all property/global coefficientRollingFriction peratomtypepair 2 0.05 0.05 ${rf21} ${rf22}
fix 	m5 all property/global coefficientRollingFriction peratomtypepair 2 0.05 0.05 0.05 ${rf22}
fix 	m5 all property/global coefficientRollingFriction peratomtypepair 2 0.05 0.05 0.05 0.05


###Generation and Loading of the Geometry####

#load mesh from STL file. Type 2 for geometry. Scale down to transform mm to meters
fix	funnel 		all mesh/surface file meshes/funnel_in_out.stl type 2 scale 0.001
fix	inlet_pipe 	all mesh/surface file meshes/inlet.stl type 2 scale 0.001
fix	outlet_pipe 	all mesh/surface file meshes/outlet.stl type 2 scale 0.001

fix	screw 		all mesh/surface file meshes/impeller_1.stl type 2 scale 0.001 curvature 1e-5 curvature_tolerant yes
fix	screw_inv 	all mesh/surface file meshes/impeller_inver_2.stl type 2 scale 0.001 curvature 1e-5 curvature_tolerant yes

fix	walls 		all wall/gran model hertz tangential history rolling_friction epsd2 mesh n_meshes 5 meshes funnel inlet_pipe outlet_pipe screw screw_inv
WARNING: 
	The contact model you specified is not located in any whitelist.
	Because of this the model will be run in an unoptimized version (increasing runtime by up to 20%).
	In order to optimize this model you have the following options:
		(i)  Run the genAutoExamplesWhitelist.sh script in your LIGGGHTS(R) source folder to automatically parse the input script
		(ii) Add the model combination by hand to your style_contact_model_user.whitelist that can be found in your LIGGGHTS(R) source folder
		(iii) Use the ENABLE_MODEL_* flag when building with cmake.
	If you perform one of the steps above LIGGGHTS(R) needs to be recompiled to generate the optimized code.

 (../contact_models.h:365)



####Generation and Insertion of the particles####

fix	pts1 all particletemplate/sphere 10487 atom_type 1 density constant ${densityCon} radius constant ${radiusCon1}
fix	pts1 all particletemplate/sphere 10487 atom_type 1 density constant 2700 radius constant ${radiusCon1}
fix	pts1 all particletemplate/sphere 10487 atom_type 1 density constant 2700 radius constant 0.004
#fix	pts2 all particletemplate/sphere 11887 atom_type 1 density constant ${densityCon} radius constant ${radiusCon2}
fix	pts3 all particletemplate/sphere 10487 atom_type 1 density constant ${densityAcc} radius constant ${radiusAcc}
fix	pts3 all particletemplate/sphere 10487 atom_type 1 density constant 1200 radius constant ${radiusAcc}
fix	pts3 all particletemplate/sphere 10487 atom_type 1 density constant 1200 radius constant 0.002

#fix 	pdd1 all particledistribution/discrete 32452867 ${nradii} pts1 ${frac1} pts2 ${frac2}

fix 	pdd1 all particledistribution/discrete 32452867 1 pts1 1.0
fix 	pdd2 all particledistribution/discrete 32452843 1 pts3 1.0

fix	ins_mesh_con all mesh/surface/planar file meshes/insertion_con.stl  type 1 scale 0.001
fix	ins_mesh_acc all mesh/surface/planar file meshes/insertion_acc.stl  type 1 scale 0.001

fix 	ins_con_fill all insert/stream seed 86028121 distributiontemplate pdd1         mass ${fillmass} massrate ${fillmassrate} overlapcheck yes all_in yes vel constant  0.25  0  0         insertion_face ins_mesh_con extrude_length 0.08
fix 	ins_con_fill all insert/stream seed 86028121 distributiontemplate pdd1         mass 8.1 massrate ${fillmassrate} overlapcheck yes all_in yes vel constant  0.25  0  0         insertion_face ins_mesh_con extrude_length 0.08
fix 	ins_con_fill all insert/stream seed 86028121 distributiontemplate pdd1         mass 8.1 massrate 0.27 overlapcheck yes all_in yes vel constant  0.25  0  0         insertion_face ins_mesh_con extrude_length 0.08

####Dumping of the data for post-processing to visualize####

shell	rmdir post
shell 	mkdir post
shell   mkdir simu

#Definition of the dumptime

variable dumptime equal 0.05	                        # Every 0.05 s 1 image
variable dumpstep equal ${dumptime}/${dt}	        #Transform to iteration steps
variable dumpstep equal 0.05/${dt}	        
variable dumpstep equal 0.05/0.0001	        


####Run####

#Run simulation iteration==1 and dump the file
run    	1
Setting up run at Thu Mar 30 01:00:45 2023

WARNING: Fix mesh: Mesh contains highly skewed element, moving mesh (if used) will not parallelize well (../surface_mesh_I.h:657)
WARNING: Fix mesh: Mesh contains highly skewed element, moving mesh (if used) will not parallelize well (../surface_mesh_I.h:657)
INFO: Particle insertion ins_con_fill: 119.366207 particles every 3200 steps - particle rate 373.019398, (mass rate 2.700000e-01)
      11190 particles (mass 8.099579e+00) within 297600 steps
Memory usage per processor = 19.3303 Mbytes
    Step    Atoms         KinEng            CPU 
       0        0              0              0 
INFO: Particle insertion ins_con_fill: inserted 63 particle templates (mass 4.560085e-02) at step 1
 - a total of 63 particle templates (mass 4.560085e-02) inserted so far.
WARNING: Particle insertion: Less insertions than requested (../fix_insert.cpp:814)
       1       63   0.0014250264    0.014070772 
Loop time of 0.0140802 on 6 procs for 1 steps with 63 atoms, finish time Thu Mar 30 01:00:45 2023


Pair  time (%) = 6.462e-06 (0.0458942)
Neigh time (%) = 0.000135959 (0.965601)
Comm  time (%) = 0.000486096 (3.45233)
Outpt time (%) = 0.00264215 (18.765)
Other time (%) = 0.0108096 (76.7712)

Nlocal:    10.5 ave 33 max 0 min
Histogram: 4 0 0 0 0 0 0 0 0 2
Nghost:    10.5 ave 33 max 0 min
Histogram: 4 0 0 0 0 0 0 0 0 2
Neighs:    51.6667 ave 167 max 0 min
Histogram: 4 0 0 0 0 0 0 0 1 1

Total # of neighbors = 310
Ave neighs/atom = 4.92063
Neighbor list builds = 1
Dangerous builds = 0
dump   	dmpparticle all custom/vtk ${dumpstep} post/particles_*.vtk id type type x y z ix iy iz vx vy vz fx fy fz omegax omegay omegaz radius
dump   	dmpparticle all custom/vtk 500 post/particles_*.vtk id type type x y z ix iy iz vx vy vz fx fy fz omegax omegay omegaz radius
dump   	dumpfunnel all mesh/stl ${dumpstep} post/funnel*.stl funnel
dump   	dumpfunnel all mesh/stl 500 post/funnel*.stl funnel
dump   	dumppipe all mesh/stl ${dumpstep} post/pipe*.stl outlet_pipe inlet_pipe
dump   	dumppipe all mesh/stl 500 post/pipe*.stl outlet_pipe inlet_pipe
dump	dumpscrew all mesh/stl ${dumpstep} post/screw*.stl screw screw_inv
dump	dumpscrew all mesh/stl 500 post/screw*.stl screw screw_inv

#Run simulation

run     ${fillsteps}/2
run     300000/2
Setting up run at Thu Mar 30 01:00:45 2023

Memory usage per processor = 19.3303 Mbytes
    Step    Atoms         KinEng            CPU 
       1       63   0.0014250264              0 
INFO: Particle insertion ins_con_fill: inserted 64 particle templates (mass 4.632467e-02) at step 3201
 - a total of 127 particle templates (mass 9.192551e-02) inserted so far.
WARNING: Particle insertion: Less insertions than requested (../fix_insert.cpp:814)
INFO: Particle insertion ins_con_fill: inserted 69 particle templates (mass 4.994378e-02) at step 6401
 - a total of 196 particle templates (mass 1.418693e-01) inserted so far.
WARNING: Particle insertion: Less insertions than requested (../fix_insert.cpp:814)
INFO: Particle insertion ins_con_fill: inserted 66 particle templates (mass 4.777231e-02) at step 9601
 - a total of 262 particle templates (mass 1.896416e-01) inserted so far.
WARNING: Particle insertion: Less insertions than requested (../fix_insert.cpp:814)
INFO: Particle insertion ins_con_fill: inserted 77 particle templates (mass 5.573437e-02) at step 12801
 - a total of 339 particle templates (mass 2.453760e-01) inserted so far.
WARNING: Particle insertion: Less insertions than requested (../fix_insert.cpp:814)
INFO: Particle insertion ins_con_fill: inserted 68 particle templates (mass 4.921996e-02) at step 16001
 - a total of 407 particle templates (mass 2.945959e-01) inserted so far.
WARNING: Particle insertion: Less insertions than requested (../fix_insert.cpp:814)
INFO: Particle insertion ins_con_fill: inserted 70 particle templates (mass 5.066761e-02) at step 19201
 - a total of 477 particle templates (mass 3.452635e-01) inserted so far.
WARNING: Particle insertion: Less insertions than requested (../fix_insert.cpp:814)
INFO: Particle insertion ins_con_fill: inserted 69 particle templates (mass 4.994378e-02) at step 22401
 - a total of 546 particle templates (mass 3.952073e-01) inserted so far.
WARNING: Particle insertion: Less insertions than requested (../fix_insert.cpp:814)
INFO: Particle insertion ins_con_fill: inserted 69 particle templates (mass 4.994378e-02) at step 25601
 - a total of 615 particle templates (mass 4.451511e-01) inserted so far.
WARNING: Particle insertion: Less insertions than requested (../fix_insert.cpp:814)
INFO: Particle insertion ins_con_fill: inserted 63 particle templates (mass 4.560085e-02) at step 28801
 - a total of 678 particle templates (mass 4.907520e-01) inserted so far.
WARNING: Particle insertion: Less insertions than requested (../fix_insert.cpp:814)
INFO: Particle insertion ins_con_fill: inserted 66 particle templates (mass 4.777231e-02) at step 32001
 - a total of 744 particle templates (mass 5.385243e-01) inserted so far.
WARNING: Particle insertion: Less insertions than requested (../fix_insert.cpp:814)
INFO: Particle insertion ins_con_fill: inserted 68 particle templates (mass 4.921996e-02) at step 35201
 - a total of 812 particle templates (mass 5.877442e-01) inserted so far.
WARNING: Particle insertion: Less insertions than requested (../fix_insert.cpp:814)
INFO: Particle insertion ins_con_fill: inserted 74 particle templates (mass 5.356290e-02) at step 38401
 - a total of 886 particle templates (mass 6.413071e-01) inserted so far.
WARNING: Particle insertion: Less insertions than requested (../fix_insert.cpp:814)
INFO: Particle insertion ins_con_fill: inserted 68 particle templates (mass 4.921996e-02) at step 41601
 - a total of 954 particle templates (mass 6.905271e-01) inserted so far.
WARNING: Particle insertion: Less insertions than requested (../fix_insert.cpp:814)
INFO: Particle insertion ins_con_fill: inserted 63 particle templates (mass 4.560085e-02) at step 44801
 - a total of 1017 particle templates (mass 7.361279e-01) inserted so far.
WARNING: Particle insertion: Less insertions than requested (../fix_insert.cpp:814)
INFO: Particle insertion ins_con_fill: inserted 70 particle templates (mass 5.066761e-02) at step 48001
 - a total of 1087 particle templates (mass 7.867955e-01) inserted so far.
WARNING: Particle insertion: Less insertions than requested (../fix_insert.cpp:814)
INFO: Particle insertion ins_con_fill: inserted 71 particle templates (mass 5.139143e-02) at step 51201
 - a total of 1158 particle templates (mass 8.381870e-01) inserted so far.
WARNING: Particle insertion: Less insertions than requested (../fix_insert.cpp:814)
INFO: Particle insertion ins_con_fill: inserted 68 particle templates (mass 4.921996e-02) at step 54401
 - a total of 1226 particle templates (mass 8.874069e-01) inserted so far.
WARNING: Particle insertion: Less insertions than requested (../fix_insert.cpp:814)
INFO: Particle insertion ins_con_fill: inserted 68 particle templates (mass 4.921996e-02) at step 57601
 - a total of 1294 particle templates (mass 9.366269e-01) inserted so far.
WARNING: Particle insertion: Less insertions than requested (../fix_insert.cpp:814)
INFO: Particle insertion ins_con_fill: inserted 70 particle templates (mass 5.066761e-02) at step 60801
 - a total of 1364 particle templates (mass 9.872945e-01) inserted so far.
WARNING: Particle insertion: Less insertions than requested (../fix_insert.cpp:814)
INFO: Particle insertion ins_con_fill: inserted 66 particle templates (mass 4.777231e-02) at step 64001
 - a total of 1430 particle templates (mass 1.035067e+00) inserted so far.
WARNING: Particle insertion: Less insertions than requested (../fix_insert.cpp:814)
INFO: Particle insertion ins_con_fill: inserted 67 particle templates (mass 4.849614e-02) at step 67201
 - a total of 1497 particle templates (mass 1.083563e+00) inserted so far.
WARNING: Particle insertion: Less insertions than requested (../fix_insert.cpp:814)
INFO: Particle insertion ins_con_fill: inserted 71 particle templates (mass 5.139143e-02) at step 70401
 - a total of 1568 particle templates (mass 1.134954e+00) inserted so far.
WARNING: Particle insertion: Less insertions than requested (../fix_insert.cpp:814)
INFO: Particle insertion ins_con_fill: inserted 72 particle templates (mass 5.211525e-02) at step 73601
 - a total of 1640 particle templates (mass 1.187070e+00) inserted so far.
WARNING: Particle insertion: Less insertions than requested (../fix_insert.cpp:814)
INFO: Particle insertion ins_con_fill: inserted 70 particle templates (mass 5.066761e-02) at step 76801
 - a total of 1710 particle templates (mass 1.237737e+00) inserted so far.
WARNING: Particle insertion: Less insertions than requested (../fix_insert.cpp:814)
INFO: Particle insertion ins_con_fill: inserted 67 particle templates (mass 4.849614e-02) at step 80001
 - a total of 1777 particle templates (mass 1.286233e+00) inserted so far.
WARNING: Particle insertion: Less insertions than requested (../fix_insert.cpp:814)
INFO: Particle insertion ins_con_fill: inserted 72 particle templates (mass 5.211525e-02) at step 83201
 - a total of 1849 particle templates (mass 1.338349e+00) inserted so far.
WARNING: Particle insertion: Less insertions than requested (../fix_insert.cpp:814)
INFO: Particle insertion ins_con_fill: inserted 69 particle templates (mass 4.994378e-02) at step 86401
 - a total of 1918 particle templates (mass 1.388292e+00) inserted so far.
WARNING: Particle insertion: Less insertions than requested (../fix_insert.cpp:814)
INFO: Particle insertion ins_con_fill: inserted 76 particle templates (mass 5.501054e-02) at step 89601
 - a total of 1994 particle templates (mass 1.443303e+00) inserted so far.
WARNING: Particle insertion: Less insertions than requested (../fix_insert.cpp:814)
INFO: Particle insertion ins_con_fill: inserted 73 particle templates (mass 5.283908e-02) at step 92801
 - a total of 2067 particle templates (mass 1.496142e+00) inserted so far.
WARNING: Particle insertion: Less insertions than requested (../fix_insert.cpp:814)
INFO: Particle insertion ins_con_fill: inserted 69 particle templates (mass 4.994378e-02) at step 96001
 - a total of 2136 particle templates (mass 1.546086e+00) inserted so far.
WARNING: Particle insertion: Less insertions than requested (../fix_insert.cpp:814)
INFO: Particle insertion ins_con_fill: inserted 69 particle templates (mass 4.994378e-02) at step 99201
 - a total of 2205 particle templates (mass 1.596030e+00) inserted so far.
WARNING: Particle insertion: Less insertions than requested (../fix_insert.cpp:814)
INFO: Particle insertion ins_con_fill: inserted 69 particle templates (mass 4.994378e-02) at step 102401
 - a total of 2274 particle templates (mass 1.645973e+00) inserted so far.
WARNING: Particle insertion: Less insertions than requested (../fix_insert.cpp:814)
INFO: Particle insertion ins_con_fill: inserted 69 particle templates (mass 4.994378e-02) at step 105601
 - a total of 2343 particle templates (mass 1.695917e+00) inserted so far.
WARNING: Particle insertion: Less insertions than requested (../fix_insert.cpp:814)
INFO: Particle insertion ins_con_fill: inserted 65 particle templates (mass 4.704849e-02) at step 108801
 - a total of 2408 particle templates (mass 1.742966e+00) inserted so far.
WARNING: Particle insertion: Less insertions than requested (../fix_insert.cpp:814)
INFO: Particle insertion ins_con_fill: inserted 66 particle templates (mass 4.777231e-02) at step 112001
 - a total of 2474 particle templates (mass 1.790738e+00) inserted so far.
WARNING: Particle insertion: Less insertions than requested (../fix_insert.cpp:814)
INFO: Particle insertion ins_con_fill: inserted 69 particle templates (mass 4.994378e-02) at step 115201
 - a total of 2543 particle templates (mass 1.840682e+00) inserted so far.
WARNING: Particle insertion: Less insertions than requested (../fix_insert.cpp:814)
INFO: Particle insertion ins_con_fill: inserted 73 particle templates (mass 5.283908e-02) at step 118401
 - a total of 2616 particle templates (mass 1.893521e+00) inserted so far.
WARNING: Particle insertion: Less insertions than requested (../fix_insert.cpp:814)
INFO: Particle insertion ins_con_fill: inserted 66 particle templates (mass 4.777231e-02) at step 121601
 - a total of 2682 particle templates (mass 1.941293e+00) inserted so far.
WARNING: Particle insertion: Less insertions than requested (../fix_insert.cpp:814)
INFO: Particle insertion ins_con_fill: inserted 71 particle templates (mass 5.139143e-02) at step 124801
 - a total of 2753 particle templates (mass 1.992685e+00) inserted so far.
WARNING: Particle insertion: Less insertions than requested (../fix_insert.cpp:814)
INFO: Particle insertion ins_con_fill: inserted 68 particle templates (mass 4.921996e-02) at step 128001
 - a total of 2821 particle templates (mass 2.041905e+00) inserted so far.
WARNING: Particle insertion: Less insertions than requested (../fix_insert.cpp:814)
INFO: Particle insertion ins_con_fill: inserted 68 particle templates (mass 4.921996e-02) at step 131201
 - a total of 2889 particle templates (mass 2.091124e+00) inserted so far.
WARNING: Particle insertion: Less insertions than requested (../fix_insert.cpp:814)
INFO: Particle insertion ins_con_fill: inserted 69 particle templates (mass 4.994378e-02) at step 134401
 - a total of 2958 particle templates (mass 2.141068e+00) inserted so far.
WARNING: Particle insertion: Less insertions than requested (../fix_insert.cpp:814)
INFO: Particle insertion ins_con_fill: inserted 69 particle templates (mass 4.994378e-02) at step 137601
 - a total of 3027 particle templates (mass 2.191012e+00) inserted so far.
WARNING: Particle insertion: Less insertions than requested (../fix_insert.cpp:814)
INFO: Particle insertion ins_con_fill: inserted 73 particle templates (mass 5.283908e-02) at step 140801
 - a total of 3100 particle templates (mass 2.243851e+00) inserted so far.
WARNING: Particle insertion: Less insertions than requested (../fix_insert.cpp:814)
INFO: Particle insertion ins_con_fill: inserted 63 particle templates (mass 4.560085e-02) at step 144001
 - a total of 3163 particle templates (mass 2.289452e+00) inserted so far.
WARNING: Particle insertion: Less insertions than requested (../fix_insert.cpp:814)
INFO: Particle insertion ins_con_fill: inserted 70 particle templates (mass 5.066761e-02) at step 147201
 - a total of 3233 particle templates (mass 2.340120e+00) inserted so far.
WARNING: Particle insertion: Less insertions than requested (../fix_insert.cpp:814)
INFO: Particle insertion ins_con_fill: inserted 65 particle templates (mass 4.704849e-02) at step 150401
 - a total of 3298 particle templates (mass 2.387168e+00) inserted so far.
WARNING: Particle insertion: Less insertions than requested (../fix_insert.cpp:814)
INFO: Particle insertion ins_con_fill: inserted 70 particle templates (mass 5.066761e-02) at step 153601
 - a total of 3368 particle templates (mass 2.437836e+00) inserted so far.
WARNING: Particle insertion: Less insertions than requested (../fix_insert.cpp:814)
INFO: Particle insertion ins_con_fill: inserted 66 particle templates (mass 4.777231e-02) at step 156801
 - a total of 3434 particle templates (mass 2.485608e+00) inserted so far.
WARNING: Particle insertion: Less insertions than requested (../fix_insert.cpp:814)
INFO: Particle insertion ins_con_fill: inserted 68 particle templates (mass 4.921996e-02) at step 160001
 - a total of 3502 particle templates (mass 2.534828e+00) inserted so far.
WARNING: Particle insertion: Less insertions than requested (../fix_insert.cpp:814)
INFO: Particle insertion ins_con_fill: inserted 66 particle templates (mass 4.777231e-02) at step 163201
 - a total of 3568 particle templates (mass 2.582600e+00) inserted so far.
WARNING: Particle insertion: Less insertions than requested (../fix_insert.cpp:814)
INFO: Particle insertion ins_con_fill: inserted 70 particle templates (mass 5.066761e-02) at step 166401
 - a total of 3638 particle templates (mass 2.633268e+00) inserted so far.
WARNING: Particle insertion: Less insertions than requested (../fix_insert.cpp:814)
INFO: Particle insertion ins_con_fill: inserted 64 particle templates (mass 4.632467e-02) at step 169601
 - a total of 3702 particle templates (mass 2.679593e+00) inserted so far.
WARNING: Particle insertion: Less insertions than requested (../fix_insert.cpp:814)
INFO: Particle insertion ins_con_fill: inserted 72 particle templates (mass 5.211525e-02) at step 172801
 - a total of 3774 particle templates (mass 2.731708e+00) inserted so far.
WARNING: Particle insertion: Less insertions than requested (../fix_insert.cpp:814)
INFO: Particle insertion ins_con_fill: inserted 66 particle templates (mass 4.777231e-02) at step 176001
 - a total of 3840 particle templates (mass 2.779480e+00) inserted so far.
WARNING: Particle insertion: Less insertions than requested (../fix_insert.cpp:814)
INFO: Particle insertion ins_con_fill: inserted 70 particle templates (mass 5.066761e-02) at step 179201
 - a total of 3910 particle templates (mass 2.830148e+00) inserted so far.
WARNING: Particle insertion: Less insertions than requested (../fix_insert.cpp:814)
INFO: Particle insertion ins_con_fill: inserted 70 particle templates (mass 5.066761e-02) at step 182401
 - a total of 3980 particle templates (mass 2.880815e+00) inserted so far.
WARNING: Particle insertion: Less insertions than requested (../fix_insert.cpp:814)
INFO: Particle insertion ins_con_fill: inserted 65 particle templates (mass 4.704849e-02) at step 185601
 - a total of 4045 particle templates (mass 2.927864e+00) inserted so far.
WARNING: Particle insertion: Less insertions than requested (../fix_insert.cpp:814)
INFO: Particle insertion ins_con_fill: inserted 68 particle templates (mass 4.921996e-02) at step 188801
 - a total of 4113 particle templates (mass 2.977084e+00) inserted so far.
WARNING: Particle insertion: Less insertions than requested (../fix_insert.cpp:814)
INFO: Particle insertion ins_con_fill: inserted 62 particle templates (mass 4.487702e-02) at step 192001
 - a total of 4175 particle templates (mass 3.021961e+00) inserted so far.
WARNING: Particle insertion: Less insertions than requested (../fix_insert.cpp:814)
INFO: Particle insertion ins_con_fill: inserted 66 particle templates (mass 4.777231e-02) at step 195201
 - a total of 4241 particle templates (mass 3.069733e+00) inserted so far.
WARNING: Particle insertion: Less insertions than requested (../fix_insert.cpp:814)
INFO: Particle insertion ins_con_fill: inserted 68 particle templates (mass 4.921996e-02) at step 198401
 - a total of 4309 particle templates (mass 3.118953e+00) inserted so far.
WARNING: Particle insertion: Less insertions than requested (../fix_insert.cpp:814)
INFO: Particle insertion ins_con_fill: inserted 71 particle templates (mass 5.139143e-02) at step 201601
 - a total of 4380 particle templates (mass 3.170345e+00) inserted so far.
WARNING: Particle insertion: Less insertions than requested (../fix_insert.cpp:814)
INFO: Particle insertion ins_con_fill: inserted 67 particle templates (mass 4.849614e-02) at step 204801
 - a total of 4447 particle templates (mass 3.218841e+00) inserted so far.
WARNING: Particle insertion: Less insertions than requested (../fix_insert.cpp:814)
INFO: Particle insertion ins_con_fill: inserted 67 particle templates (mass 4.849614e-02) at step 208001
 - a total of 4514 particle templates (mass 3.267337e+00) inserted so far.
WARNING: Particle insertion: Less insertions than requested (../fix_insert.cpp:814)
INFO: Particle insertion ins_con_fill: inserted 72 particle templates (mass 5.211525e-02) at step 211201
 - a total of 4586 particle templates (mass 3.319452e+00) inserted so far.
WARNING: Particle insertion: Less insertions than requested (../fix_insert.cpp:814)
INFO: Particle insertion ins_con_fill: inserted 67 particle templates (mass 4.849614e-02) at step 214401
 - a total of 4653 particle templates (mass 3.367948e+00) inserted so far.
WARNING: Particle insertion: Less insertions than requested (../fix_insert.cpp:814)
INFO: Particle insertion ins_con_fill: inserted 66 particle templates (mass 4.777231e-02) at step 217601
 - a total of 4719 particle templates (mass 3.415720e+00) inserted so far.
WARNING: Particle insertion: Less insertions than requested (../fix_insert.cpp:814)
INFO: Particle insertion ins_con_fill: inserted 68 particle templates (mass 4.921996e-02) at step 220801
 - a total of 4787 particle templates (mass 3.464940e+00) inserted so far.
WARNING: Particle insertion: Less insertions than requested (../fix_insert.cpp:814)
INFO: Particle insertion ins_con_fill: inserted 63 particle templates (mass 4.560085e-02) at step 224001
 - a total of 4850 particle templates (mass 3.510541e+00) inserted so far.
WARNING: Particle insertion: Less insertions than requested (../fix_insert.cpp:814)
INFO: Particle insertion ins_con_fill: inserted 69 particle templates (mass 4.994378e-02) at step 227201
 - a total of 4919 particle templates (mass 3.560485e+00) inserted so far.
WARNING: Particle insertion: Less insertions than requested (../fix_insert.cpp:814)
INFO: Particle insertion ins_con_fill: inserted 68 particle templates (mass 4.921996e-02) at step 230401
 - a total of 4987 particle templates (mass 3.609705e+00) inserted so far.
WARNING: Particle insertion: Less insertions than requested (../fix_insert.cpp:814)
INFO: Particle insertion ins_con_fill: inserted 73 particle templates (mass 5.283908e-02) at step 233601
 - a total of 5060 particle templates (mass 3.662544e+00) inserted so far.
WARNING: Particle insertion: Less insertions than requested (../fix_insert.cpp:814)
INFO: Particle insertion ins_con_fill: inserted 70 particle templates (mass 5.066761e-02) at step 236801
 - a total of 5130 particle templates (mass 3.713212e+00) inserted so far.
WARNING: Particle insertion: Less insertions than requested (../fix_insert.cpp:814)
INFO: Particle insertion ins_con_fill: inserted 65 particle templates (mass 4.704849e-02) at step 240001
 - a total of 5195 particle templates (mass 3.760260e+00) inserted so far.
WARNING: Particle insertion: Less insertions than requested (../fix_insert.cpp:814)
INFO: Particle insertion ins_con_fill: inserted 68 particle templates (mass 4.921996e-02) at step 243201
 - a total of 5263 particle templates (mass 3.809480e+00) inserted so far.
WARNING: Particle insertion: Less insertions than requested (../fix_insert.cpp:814)
INFO: Particle insertion ins_con_fill: inserted 70 particle templates (mass 5.066761e-02) at step 246401
 - a total of 5333 particle templates (mass 3.860148e+00) inserted so far.
WARNING: Particle insertion: Less insertions than requested (../fix_insert.cpp:814)
INFO: Particle insertion ins_con_fill: inserted 68 particle templates (mass 4.921996e-02) at step 249601
 - a total of 5401 particle templates (mass 3.909368e+00) inserted so far.
WARNING: Particle insertion: Less insertions than requested (../fix_insert.cpp:814)
INFO: Particle insertion ins_con_fill: inserted 73 particle templates (mass 5.283908e-02) at step 252801
 - a total of 5474 particle templates (mass 3.962207e+00) inserted so far.
WARNING: Particle insertion: Less insertions than requested (../fix_insert.cpp:814)
INFO: Particle insertion ins_con_fill: inserted 63 particle templates (mass 4.560085e-02) at step 256001
 - a total of 5537 particle templates (mass 4.007808e+00) inserted so far.
WARNING: Particle insertion: Less insertions than requested (../fix_insert.cpp:814)
INFO: Particle insertion ins_con_fill: inserted 69 particle templates (mass 4.994378e-02) at step 259201
 - a total of 5606 particle templates (mass 4.057751e+00) inserted so far.
WARNING: Particle insertion: Less insertions than requested (../fix_insert.cpp:814)
INFO: Particle insertion ins_con_fill: inserted 71 particle templates (mass 5.139143e-02) at step 262401
 - a total of 5677 particle templates (mass 4.109143e+00) inserted so far.
WARNING: Particle insertion: Less insertions than requested (../fix_insert.cpp:814)
INFO: Particle insertion ins_con_fill: inserted 66 particle templates (mass 4.777231e-02) at step 265601
 - a total of 5743 particle templates (mass 4.156915e+00) inserted so far.
WARNING: Particle insertion: Less insertions than requested (../fix_insert.cpp:814)
INFO: Particle insertion ins_con_fill: inserted 62 particle templates (mass 4.487702e-02) at step 268801
 - a total of 5805 particle templates (mass 4.201792e+00) inserted so far.
WARNING: Particle insertion: Less insertions than requested (../fix_insert.cpp:814)
INFO: Particle insertion ins_con_fill: inserted 70 particle templates (mass 5.066761e-02) at step 272001
 - a total of 5875 particle templates (mass 4.252460e+00) inserted so far.
WARNING: Particle insertion: Less insertions than requested (../fix_insert.cpp:814)
INFO: Particle insertion ins_con_fill: inserted 69 particle templates (mass 4.994378e-02) at step 275201
 - a total of 5944 particle templates (mass 4.302404e+00) inserted so far.
WARNING: Particle insertion: Less insertions than requested (../fix_insert.cpp:814)
INFO: Particle insertion ins_con_fill: inserted 71 particle templates (mass 5.139143e-02) at step 278401
 - a total of 6015 particle templates (mass 4.353795e+00) inserted so far.
WARNING: Particle insertion: Less insertions than requested (../fix_insert.cpp:814)
INFO: Particle insertion ins_con_fill: inserted 67 particle templates (mass 4.849614e-02) at step 281601
 - a total of 6082 particle templates (mass 4.402291e+00) inserted so far.
WARNING: Particle insertion: Less insertions than requested (../fix_insert.cpp:814)
INFO: Particle insertion ins_con_fill: inserted 67 particle templates (mass 4.849614e-02) at step 284801
 - a total of 6149 particle templates (mass 4.450787e+00) inserted so far.
WARNING: Particle insertion: Less insertions than requested (../fix_insert.cpp:814)
INFO: Particle insertion ins_con_fill: inserted 71 particle templates (mass 5.139143e-02) at step 288001
 - a total of 6220 particle templates (mass 4.502179e+00) inserted so far.
WARNING: Particle insertion: Less insertions than requested (../fix_insert.cpp:814)
INFO: Particle insertion ins_con_fill: inserted 74 particle templates (mass 5.356290e-02) at step 291201
 - a total of 6294 particle templates (mass 4.555742e+00) inserted so far.
WARNING: Particle insertion: Less insertions than requested (../fix_insert.cpp:814)
INFO: Particle insertion ins_con_fill: inserted 70 particle templates (mass 5.066761e-02) at step 294401
 - a total of 6364 particle templates (mass 4.606409e+00) inserted so far.
WARNING: Particle insertion: Less insertions than requested (../fix_insert.cpp:814)
INFO: Particle insertion ins_con_fill: inserted 69 particle templates (mass 4.994378e-02) at step 297601
 - a total of 6433 particle templates (mass 4.656353e+00) inserted so far.
WARNING: Particle insertion: Less insertions than requested (../fix_insert.cpp:814)
  300001     6215   0.0023378466       1083.819 
Loop time of 1083.82 on 6 procs for 300000 steps with 6215 atoms, finish time Thu Mar 30 01:18:49 2023


Pair  time (%) = 102.04 (9.41486)
Neigh time (%) = 11.1985 (1.03325)
Comm  time (%) = 46.226 (4.2651)
Outpt time (%) = 22.649 (2.08974)
Other time (%) = 901.705 (83.197)

Nlocal:    1035.83 ave 3228 max 0 min
Histogram: 4 0 0 0 0 0 0 0 0 2
Nghost:    175.333 ave 540 max 0 min
Histogram: 4 0 0 0 0 0 0 0 0 2
Neighs:    17521.3 ave 54853 max 0 min
Histogram: 4 0 0 0 0 0 0 0 0 2

Total # of neighbors = 105128
Ave neighs/atom = 16.9152
Neighbor list builds = 23990
Dangerous builds = 0

run     ${settlesteps}
run     10000
Setting up run at Thu Mar 30 01:18:49 2023

Memory usage per processor = 25.7293 Mbytes
    Step    Atoms         KinEng            CPU 
  300001     6215   0.0023378466              0 
INFO: Particle insertion ins_con_fill: inserted 74 particle templates (mass 5.356290e-02) at step 300801
 - a total of 6507 particle templates (mass 4.709916e+00) inserted so far.
WARNING: Particle insertion: Less insertions than requested (../fix_insert.cpp:814)
INFO: Particle insertion ins_con_fill: inserted 68 particle templates (mass 4.921996e-02) at step 304001
 - a total of 6575 particle templates (mass 4.759136e+00) inserted so far.
WARNING: Particle insertion: Less insertions than requested (../fix_insert.cpp:814)
INFO: Particle insertion ins_con_fill: inserted 69 particle templates (mass 4.994378e-02) at step 307201
 - a total of 6644 particle templates (mass 4.809080e+00) inserted so far.
WARNING: Particle insertion: Less insertions than requested (../fix_insert.cpp:814)
  310001     6426   0.0020754054      56.982089 
Loop time of 56.9821 on 6 procs for 10000 steps with 6426 atoms, finish time Thu Mar 30 01:19:46 2023


Pair  time (%) = 7.08755 (12.4382)
Neigh time (%) = 0.230794 (0.405028)
Comm  time (%) = 0.520121 (0.912779)
Outpt time (%) = 1.10511 (1.93939)
Other time (%) = 48.0385 (84.3046)

Nlocal:    1071 ave 3347 max 0 min
Histogram: 4 0 0 0 0 0 0 0 0 2
Nghost:    181.833 ave 574 max 0 min
Histogram: 4 0 0 0 0 0 0 0 0 2
Neighs:    18216.5 ave 57257 max 0 min
Histogram: 4 0 0 0 0 0 0 0 0 2

Total # of neighbors = 109299
Ave neighs/atom = 17.0089
Neighbor list builds = 119
Dangerous builds = 0
unfix 	ins_con_fill

fix	Movescrew  all move/mesh mesh screw rotate origin 0 -0.045 0 axis 0 0 1 period ${screwPeriod}
fix	Movescrew  all move/mesh mesh screw rotate origin 0 -0.045 0 axis 0 0 1 period 1.33333333333333
fix	Movescrew_inv  all move/mesh mesh screw_inv rotate origin 0 0.045 0 axis 0 0 -1 period ${screwPeriod}
fix	Movescrew_inv  all move/mesh mesh screw_inv rotate origin 0 0.045 0 axis 0 0 -1 period 1.33333333333333

fix 	ins_con all insert/stream seed 86028121 distributiontemplate pdd1         mass ${fillmass} massrate ${fillmassrate} overlapcheck yes all_in yes vel constant  0.25  0  0         insertion_face ins_mesh_con extrude_length 0.08
fix 	ins_con all insert/stream seed 86028121 distributiontemplate pdd1         mass 8.1 massrate ${fillmassrate} overlapcheck yes all_in yes vel constant  0.25  0  0         insertion_face ins_mesh_con extrude_length 0.08
fix 	ins_con all insert/stream seed 86028121 distributiontemplate pdd1         mass 8.1 massrate 0.27 overlapcheck yes all_in yes vel constant  0.25  0  0         insertion_face ins_mesh_con extrude_length 0.08

fix 	ins_acc all insert/stream seed 86028121 distributiontemplate pdd2         mass ${fillmassAcc} massrate ${fillmassrateAcc} overlapcheck yes all_in yes vel constant 0.1  0.1  0          insertion_face ins_mesh_acc extrude_length 0.02
fix 	ins_acc all insert/stream seed 86028121 distributiontemplate pdd2         mass 486 massrate ${fillmassrateAcc} overlapcheck yes all_in yes vel constant 0.1  0.1  0          insertion_face ins_mesh_acc extrude_length 0.02
fix 	ins_acc all insert/stream seed 86028121 distributiontemplate pdd2         mass 486 massrate 16.2 overlapcheck yes all_in yes vel constant 0.1  0.1  0          insertion_face ins_mesh_acc extrude_length 0.02

run     ${mixingSteps}
run     300000
Setting up run at Thu Mar 30 01:19:46 2023

INFO: Particle insertion ins_con: 119.366207 particles every 3200 steps - particle rate 373.019398, (mass rate 2.700000e-01)
      11190 particles (mass 8.099579e+00) within 297600 steps
INFO: Particle insertion ins_acc: 60590.286835 particles every 1504 steps - particle rate 402860.949701, (mass rate 1.620000e+01)
      12085828 particles (mass 4.860000e+02) within 299296 steps
Memory usage per processor = 25.7449 Mbytes
    Step    Atoms         KinEng            CPU 
  310001     6426   0.0020754054              0 
INFO: Particle insertion ins_con: inserted 57 particle templates (mass 4.125791e-02) at step 310002
 - a total of 57 particle templates (mass 4.125791e-02) inserted so far.
WARNING: Particle insertion: Less insertions than requested (../fix_insert.cpp:814)
INFO: Particle insertion ins_acc: inserted 5 particle templates (mass 2.010619e-04) at step 310002
 - a total of 5 particle templates (mass 2.010619e-04) inserted so far.
WARNING: Particle insertion: Less insertions than requested (../fix_insert.cpp:814)
INFO: Particle insertion ins_acc: inserted 4 particle templates (mass 1.608495e-04) at step 311506
 - a total of 9 particle templates (mass 3.619115e-04) inserted so far.
WARNING: Particle insertion: Less insertions than requested (../fix_insert.cpp:814)
INFO: Particle insertion ins_acc: inserted 3 particle templates (mass 1.206372e-04) at step 313010
 - a total of 12 particle templates (mass 4.825486e-04) inserted so far.
WARNING: Particle insertion: Less insertions than requested (../fix_insert.cpp:814)
INFO: Particle insertion ins_con: inserted 68 particle templates (mass 4.921996e-02) at step 313202
 - a total of 125 particle templates (mass 9.047787e-02) inserted so far.
WARNING: Particle insertion: Less insertions than requested (../fix_insert.cpp:814)
INFO: Particle insertion ins_acc: inserted 3 particle templates (mass 1.206372e-04) at step 314514
 - a total of 15 particle templates (mass 6.031858e-04) inserted so far.
WARNING: Particle insertion: Less insertions than requested (../fix_insert.cpp:814)
INFO: Particle insertion ins_acc: inserted 4 particle templates (mass 1.608495e-04) at step 316018
 - a total of 19 particle templates (mass 7.640353e-04) inserted so far.
WARNING: Particle insertion: Less insertions than requested (../fix_insert.cpp:814)
INFO: Particle insertion ins_con: inserted 64 particle templates (mass 4.632467e-02) at step 316402
 - a total of 189 particle templates (mass 1.368025e-01) inserted so far.
WARNING: Particle insertion: Less insertions than requested (../fix_insert.cpp:814)
INFO: Particle insertion ins_acc: inserted 3 particle templates (mass 1.206372e-04) at step 317522
 - a total of 22 particle templates (mass 8.846725e-04) inserted so far.
WARNING: Particle insertion: Less insertions than requested (../fix_insert.cpp:814)
INFO: Particle insertion ins_acc: inserted 4 particle templates (mass 1.608495e-04) at step 319026
 - a total of 26 particle templates (mass 1.045522e-03) inserted so far.
WARNING: Particle insertion: Less insertions than requested (../fix_insert.cpp:814)
INFO: Particle insertion ins_con: inserted 66 particle templates (mass 4.777231e-02) at step 319602
 - a total of 255 particle templates (mass 1.845749e-01) inserted so far.
WARNING: Particle insertion: Less insertions than requested (../fix_insert.cpp:814)
INFO: Particle insertion ins_acc: inserted 4 particle templates (mass 1.608495e-04) at step 320530
 - a total of 30 particle templates (mass 1.206372e-03) inserted so far.
WARNING: Particle insertion: Less insertions than requested (../fix_insert.cpp:814)
INFO: Particle insertion ins_acc: inserted 4 particle templates (mass 1.608495e-04) at step 322034
 - a total of 34 particle templates (mass 1.367221e-03) inserted so far.
WARNING: Particle insertion: Less insertions than requested (../fix_insert.cpp:814)
INFO: Particle insertion ins_con: inserted 64 particle templates (mass 4.632467e-02) at step 322802
 - a total of 319 particle templates (mass 2.308995e-01) inserted so far.
WARNING: Particle insertion: Less insertions than requested (../fix_insert.cpp:814)
INFO: Particle insertion ins_acc: inserted 4 particle templates (mass 1.608495e-04) at step 323538
 - a total of 38 particle templates (mass 1.528071e-03) inserted so far.
WARNING: Particle insertion: Less insertions than requested (../fix_insert.cpp:814)
INFO: Particle insertion ins_acc: inserted 4 particle templates (mass 1.608495e-04) at step 325042
 - a total of 42 particle templates (mass 1.688920e-03) inserted so far.
WARNING: Particle insertion: Less insertions than requested (../fix_insert.cpp:814)
INFO: Particle insertion ins_con: inserted 66 particle templates (mass 4.777231e-02) at step 326002
 - a total of 385 particle templates (mass 2.786718e-01) inserted so far.
WARNING: Particle insertion: Less insertions than requested (../fix_insert.cpp:814)
INFO: Particle insertion ins_acc: inserted 4 particle templates (mass 1.608495e-04) at step 326546
 - a total of 46 particle templates (mass 1.849770e-03) inserted so far.
WARNING: Particle insertion: Less insertions than requested (../fix_insert.cpp:814)
INFO: Particle insertion ins_acc: inserted 3 particle templates (mass 1.206372e-04) at step 328050
 - a total of 49 particle templates (mass 1.970407e-03) inserted so far.
WARNING: Particle insertion: Less insertions than requested (../fix_insert.cpp:814)
INFO: Particle insertion ins_con: inserted 64 particle templates (mass 4.632467e-02) at step 329202
 - a total of 449 particle templates (mass 3.249965e-01) inserted so far.
WARNING: Particle insertion: Less insertions than requested (../fix_insert.cpp:814)
INFO: Particle insertion ins_acc: inserted 4 particle templates (mass 1.608495e-04) at step 329554
 - a total of 53 particle templates (mass 2.131256e-03) inserted so far.
WARNING: Particle insertion: Less insertions than requested (../fix_insert.cpp:814)
INFO: Particle insertion ins_acc: inserted 3 particle templates (mass 1.206372e-04) at step 331058
 - a total of 56 particle templates (mass 2.251894e-03) inserted so far.
WARNING: Particle insertion: Less insertions than requested (../fix_insert.cpp:814)
INFO: Particle insertion ins_con: inserted 71 particle templates (mass 5.139143e-02) at step 332402
 - a total of 520 particle templates (mass 3.763879e-01) inserted so far.
WARNING: Particle insertion: Less insertions than requested (../fix_insert.cpp:814)
INFO: Particle insertion ins_acc: inserted 4 particle templates (mass 1.608495e-04) at step 332562
 - a total of 60 particle templates (mass 2.412743e-03) inserted so far.
WARNING: Particle insertion: Less insertions than requested (../fix_insert.cpp:814)
INFO: Particle insertion ins_acc: inserted 4 particle templates (mass 1.608495e-04) at step 334066
 - a total of 64 particle templates (mass 2.573593e-03) inserted so far.
WARNING: Particle insertion: Less insertions than requested (../fix_insert.cpp:814)
INFO: Particle insertion ins_acc: inserted 4 particle templates (mass 1.608495e-04) at step 335570
 - a total of 68 particle templates (mass 2.734442e-03) inserted so far.
WARNING: Particle insertion: Less insertions than requested (../fix_insert.cpp:814)
INFO: Particle insertion ins_con: inserted 67 particle templates (mass 4.849614e-02) at step 335602
 - a total of 587 particle templates (mass 4.248841e-01) inserted so far.
WARNING: Particle insertion: Less insertions than requested (../fix_insert.cpp:814)
INFO: Particle insertion ins_acc: inserted 3 particle templates (mass 1.206372e-04) at step 337074
 - a total of 71 particle templates (mass 2.855079e-03) inserted so far.
WARNING: Particle insertion: Less insertions than requested (../fix_insert.cpp:814)
INFO: Particle insertion ins_acc: inserted 4 particle templates (mass 1.608495e-04) at step 338578
 - a total of 75 particle templates (mass 3.015929e-03) inserted so far.
WARNING: Particle insertion: Less insertions than requested (../fix_insert.cpp:814)
INFO: Particle insertion ins_con: inserted 72 particle templates (mass 5.211525e-02) at step 338802
 - a total of 659 particle templates (mass 4.769993e-01) inserted so far.
WARNING: Particle insertion: Less insertions than requested (../fix_insert.cpp:814)
INFO: Particle insertion ins_acc: inserted 4 particle templates (mass 1.608495e-04) at step 340082
 - a total of 79 particle templates (mass 3.176778e-03) inserted so far.
WARNING: Particle insertion: Less insertions than requested (../fix_insert.cpp:814)
INFO: Particle insertion ins_acc: inserted 4 particle templates (mass 1.608495e-04) at step 341586
 - a total of 83 particle templates (mass 3.337628e-03) inserted so far.
WARNING: Particle insertion: Less insertions than requested (../fix_insert.cpp:814)
INFO: Particle insertion ins_con: inserted 69 particle templates (mass 4.994378e-02) at step 342002
 - a total of 728 particle templates (mass 5.269431e-01) inserted so far.
WARNING: Particle insertion: Less insertions than requested (../fix_insert.cpp:814)
INFO: Particle insertion ins_acc: inserted 4 particle templates (mass 1.608495e-04) at step 343090
 - a total of 87 particle templates (mass 3.498478e-03) inserted so far.
WARNING: Particle insertion: Less insertions than requested (../fix_insert.cpp:814)
INFO: Particle insertion ins_acc: inserted 4 particle templates (mass 1.608495e-04) at step 344594
 - a total of 91 particle templates (mass 3.659327e-03) inserted so far.
WARNING: Particle insertion: Less insertions than requested (../fix_insert.cpp:814)
INFO: Particle insertion ins_con: inserted 67 particle templates (mass 4.849614e-02) at step 345202
 - a total of 795 particle templates (mass 5.754392e-01) inserted so far.
WARNING: Particle insertion: Less insertions than requested (../fix_insert.cpp:814)
INFO: Particle insertion ins_acc: inserted 3 particle templates (mass 1.206372e-04) at step 346098
 - a total of 94 particle templates (mass 3.779964e-03) inserted so far.
WARNING: Particle insertion: Less insertions than requested (../fix_insert.cpp:814)
INFO: Particle insertion ins_acc: inserted 4 particle templates (mass 1.608495e-04) at step 347602
 - a total of 98 particle templates (mass 3.940814e-03) inserted so far.
WARNING: Particle insertion: Less insertions than requested (../fix_insert.cpp:814)
INFO: Particle insertion ins_con: inserted 69 particle templates (mass 4.994378e-02) at step 348402
 - a total of 864 particle templates (mass 6.253830e-01) inserted so far.
WARNING: Particle insertion: Less insertions than requested (../fix_insert.cpp:814)
INFO: Particle insertion ins_acc: inserted 4 particle templates (mass 1.608495e-04) at step 349106
 - a total of 102 particle templates (mass 4.101663e-03) inserted so far.
WARNING: Particle insertion: Less insertions than requested (../fix_insert.cpp:814)
INFO: Particle insertion ins_acc: inserted 4 particle templates (mass 1.608495e-04) at step 350610
 - a total of 106 particle templates (mass 4.262513e-03) inserted so far.
WARNING: Particle insertion: Less insertions than requested (../fix_insert.cpp:814)
INFO: Particle insertion ins_con: inserted 71 particle templates (mass 5.139143e-02) at step 351602
 - a total of 935 particle templates (mass 6.767745e-01) inserted so far.
WARNING: Particle insertion: Less insertions than requested (../fix_insert.cpp:814)
INFO: Particle insertion ins_acc: inserted 4 particle templates (mass 1.608495e-04) at step 352114
 - a total of 110 particle templates (mass 4.423362e-03) inserted so far.
WARNING: Particle insertion: Less insertions than requested (../fix_insert.cpp:814)
INFO: Particle insertion ins_acc: inserted 4 particle templates (mass 1.608495e-04) at step 353618
 - a total of 114 particle templates (mass 4.584212e-03) inserted so far.
WARNING: Particle insertion: Less insertions than requested (../fix_insert.cpp:814)
INFO: Particle insertion ins_con: inserted 68 particle templates (mass 4.921996e-02) at step 354802
 - a total of 1003 particle templates (mass 7.259944e-01) inserted so far.
WARNING: Particle insertion: Less insertions than requested (../fix_insert.cpp:814)
INFO: Particle insertion ins_acc: inserted 3 particle templates (mass 1.206372e-04) at step 355122
 - a total of 117 particle templates (mass 4.704849e-03) inserted so far.
WARNING: Particle insertion: Less insertions than requested (../fix_insert.cpp:814)
INFO: Particle insertion ins_acc: inserted 4 particle templates (mass 1.608495e-04) at step 356626
 - a total of 121 particle templates (mass 4.865699e-03) inserted so far.
WARNING: Particle insertion: Less insertions than requested (../fix_insert.cpp:814)
INFO: Particle insertion ins_con: inserted 68 particle templates (mass 4.921996e-02) at step 358002
 - a total of 1071 particle templates (mass 7.752144e-01) inserted so far.
WARNING: Particle insertion: Less insertions than requested (../fix_insert.cpp:814)
INFO: Particle insertion ins_acc: inserted 3 particle templates (mass 1.206372e-04) at step 358130
 - a total of 124 particle templates (mass 4.986336e-03) inserted so far.
WARNING: Particle insertion: Less insertions than requested (../fix_insert.cpp:814)
INFO: Particle insertion ins_acc: inserted 4 particle templates (mass 1.608495e-04) at step 359634
 - a total of 128 particle templates (mass 5.147185e-03) inserted so far.
WARNING: Particle insertion: Less insertions than requested (../fix_insert.cpp:814)
INFO: Particle insertion ins_acc: inserted 4 particle templates (mass 1.608495e-04) at step 361138
 - a total of 132 particle templates (mass 5.308035e-03) inserted so far.
WARNING: Particle insertion: Less insertions than requested (../fix_insert.cpp:814)
INFO: Particle insertion ins_con: inserted 67 particle templates (mass 4.849614e-02) at step 361202
 - a total of 1138 particle templates (mass 8.237105e-01) inserted so far.
WARNING: Particle insertion: Less insertions than requested (../fix_insert.cpp:814)
INFO: Particle insertion ins_acc: inserted 4 particle templates (mass 1.608495e-04) at step 362642
 - a total of 136 particle templates (mass 5.468884e-03) inserted so far.
WARNING: Particle insertion: Less insertions than requested (../fix_insert.cpp:814)
INFO: Particle insertion ins_acc: inserted 3 particle templates (mass 1.206372e-04) at step 364146
 - a total of 139 particle templates (mass 5.589522e-03) inserted so far.
WARNING: Particle insertion: Less insertions than requested (../fix_insert.cpp:814)
INFO: Particle insertion ins_con: inserted 71 particle templates (mass 5.139143e-02) at step 364402
 - a total of 1209 particle templates (mass 8.751019e-01) inserted so far.
WARNING: Particle insertion: Less insertions than requested (../fix_insert.cpp:814)
INFO: Particle insertion ins_acc: inserted 4 particle templates (mass 1.608495e-04) at step 365650
 - a total of 143 particle templates (mass 5.750371e-03) inserted so far.
WARNING: Particle insertion: Less insertions than requested (../fix_insert.cpp:814)
INFO: Particle insertion ins_acc: inserted 3 particle templates (mass 1.206372e-04) at step 367154
 - a total of 146 particle templates (mass 5.871008e-03) inserted so far.
WARNING: Particle insertion: Less insertions than requested (../fix_insert.cpp:814)
INFO: Particle insertion ins_con: inserted 69 particle templates (mass 4.994378e-02) at step 367602
 - a total of 1278 particle templates (mass 9.250457e-01) inserted so far.
WARNING: Particle insertion: Less insertions than requested (../fix_insert.cpp:814)
INFO: Particle insertion ins_acc: inserted 4 particle templates (mass 1.608495e-04) at step 368658
 - a total of 150 particle templates (mass 6.031858e-03) inserted so far.
WARNING: Particle insertion: Less insertions than requested (../fix_insert.cpp:814)
INFO: Particle insertion ins_acc: inserted 4 particle templates (mass 1.608495e-04) at step 370162
 - a total of 154 particle templates (mass 6.192707e-03) inserted so far.
WARNING: Particle insertion: Less insertions than requested (../fix_insert.cpp:814)
INFO: Particle insertion ins_con: inserted 71 particle templates (mass 5.139143e-02) at step 370802
 - a total of 1349 particle templates (mass 9.764372e-01) inserted so far.
WARNING: Particle insertion: Less insertions than requested (../fix_insert.cpp:814)
INFO: Particle insertion ins_acc: inserted 4 particle templates (mass 1.608495e-04) at step 371666
 - a total of 158 particle templates (mass 6.353557e-03) inserted so far.
WARNING: Particle insertion: Less insertions than requested (../fix_insert.cpp:814)
INFO: Particle insertion ins_acc: inserted 4 particle templates (mass 1.608495e-04) at step 373170
 - a total of 162 particle templates (mass 6.514407e-03) inserted so far.
WARNING: Particle insertion: Less insertions than requested (../fix_insert.cpp:814)
INFO: Particle insertion ins_con: inserted 68 particle templates (mass 4.921996e-02) at step 374002
 - a total of 1417 particle templates (mass 1.025657e+00) inserted so far.
WARNING: Particle insertion: Less insertions than requested (../fix_insert.cpp:814)
INFO: Particle insertion ins_acc: inserted 4 particle templates (mass 1.608495e-04) at step 374674
 - a total of 166 particle templates (mass 6.675256e-03) inserted so far.
WARNING: Particle insertion: Less insertions than requested (../fix_insert.cpp:814)
INFO: Particle insertion ins_acc: inserted 3 particle templates (mass 1.206372e-04) at step 376178
 - a total of 169 particle templates (mass 6.795893e-03) inserted so far.
WARNING: Particle insertion: Less insertions than requested (../fix_insert.cpp:814)
INFO: Particle insertion ins_con: inserted 70 particle templates (mass 5.066761e-02) at step 377202
 - a total of 1487 particle templates (mass 1.076325e+00) inserted so far.
WARNING: Particle insertion: Less insertions than requested (../fix_insert.cpp:814)
INFO: Particle insertion ins_acc: inserted 4 particle templates (mass 1.608495e-04) at step 377682
 - a total of 173 particle templates (mass 6.956743e-03) inserted so far.
WARNING: Particle insertion: Less insertions than requested (../fix_insert.cpp:814)
INFO: Particle insertion ins_acc: inserted 4 particle templates (mass 1.608495e-04) at step 379186
 - a total of 177 particle templates (mass 7.117592e-03) inserted so far.
WARNING: Particle insertion: Less insertions than requested (../fix_insert.cpp:814)
INFO: Particle insertion ins_con: inserted 68 particle templates (mass 4.921996e-02) at step 380402
 - a total of 1555 particle templates (mass 1.125545e+00) inserted so far.
WARNING: Particle insertion: Less insertions than requested (../fix_insert.cpp:814)
INFO: Particle insertion ins_acc: inserted 5 particle templates (mass 2.010619e-04) at step 380690
 - a total of 182 particle templates (mass 7.318654e-03) inserted so far.
WARNING: Particle insertion: Less insertions than requested (../fix_insert.cpp:814)
INFO: Particle insertion ins_acc: inserted 4 particle templates (mass 1.608495e-04) at step 382194
 - a total of 186 particle templates (mass 7.479504e-03) inserted so far.
WARNING: Particle insertion: Less insertions than requested (../fix_insert.cpp:814)
INFO: Particle insertion ins_con: inserted 70 particle templates (mass 5.066761e-02) at step 383602
 - a total of 1625 particle templates (mass 1.176212e+00) inserted so far.
WARNING: Particle insertion: Less insertions than requested (../fix_insert.cpp:814)
INFO: Particle insertion ins_acc: inserted 4 particle templates (mass 1.608495e-04) at step 383698
 - a total of 190 particle templates (mass 7.640353e-03) inserted so far.
WARNING: Particle insertion: Less insertions than requested (../fix_insert.cpp:814)
INFO: Particle insertion ins_acc: inserted 4 particle templates (mass 1.608495e-04) at step 385202
 - a total of 194 particle templates (mass 7.801203e-03) inserted so far.
WARNING: Particle insertion: Less insertions than requested (../fix_insert.cpp:814)
INFO: Particle insertion ins_acc: inserted 4 particle templates (mass 1.608495e-04) at step 386706
 - a total of 198 particle templates (mass 7.962052e-03) inserted so far.
WARNING: Particle insertion: Less insertions than requested (../fix_insert.cpp:814)
INFO: Particle insertion ins_con: inserted 68 particle templates (mass 4.921996e-02) at step 386802
 - a total of 1693 particle templates (mass 1.225432e+00) inserted so far.
WARNING: Particle insertion: Less insertions than requested (../fix_insert.cpp:814)
INFO: Particle insertion ins_acc: inserted 4 particle templates (mass 1.608495e-04) at step 388210
 - a total of 202 particle templates (mass 8.122902e-03) inserted so far.
WARNING: Particle insertion: Less insertions than requested (../fix_insert.cpp:814)
INFO: Particle insertion ins_acc: inserted 4 particle templates (mass 1.608495e-04) at step 389714
 - a total of 206 particle templates (mass 8.283752e-03) inserted so far.
WARNING: Particle insertion: Less insertions than requested (../fix_insert.cpp:814)
INFO: Particle insertion ins_con: inserted 63 particle templates (mass 4.560085e-02) at step 390002
 - a total of 1756 particle templates (mass 1.271033e+00) inserted so far.
WARNING: Particle insertion: Less insertions than requested (../fix_insert.cpp:814)
INFO: Particle insertion ins_acc: inserted 4 particle templates (mass 1.608495e-04) at step 391218
 - a total of 210 particle templates (mass 8.444601e-03) inserted so far.
WARNING: Particle insertion: Less insertions than requested (../fix_insert.cpp:814)
INFO: Particle insertion ins_acc: inserted 4 particle templates (mass 1.608495e-04) at step 392722
 - a total of 214 particle templates (mass 8.605451e-03) inserted so far.
WARNING: Particle insertion: Less insertions than requested (../fix_insert.cpp:814)
INFO: Particle insertion ins_con: inserted 70 particle templates (mass 5.066761e-02) at step 393202
 - a total of 1826 particle templates (mass 1.321701e+00) inserted so far.
WARNING: Particle insertion: Less insertions than requested (../fix_insert.cpp:814)
INFO: Particle insertion ins_acc: inserted 4 particle templates (mass 1.608495e-04) at step 394226
 - a total of 218 particle templates (mass 8.766300e-03) inserted so far.
WARNING: Particle insertion: Less insertions than requested (../fix_insert.cpp:814)
INFO: Particle insertion ins_acc: inserted 4 particle templates (mass 1.608495e-04) at step 395730
 - a total of 222 particle templates (mass 8.927150e-03) inserted so far.
WARNING: Particle insertion: Less insertions than requested (../fix_insert.cpp:814)
INFO: Particle insertion ins_con: inserted 68 particle templates (mass 4.921996e-02) at step 396402
 - a total of 1894 particle templates (mass 1.370921e+00) inserted so far.
WARNING: Particle insertion: Less insertions than requested (../fix_insert.cpp:814)
INFO: Particle insertion ins_acc: inserted 4 particle templates (mass 1.608495e-04) at step 397234
 - a total of 226 particle templates (mass 9.087999e-03) inserted so far.
WARNING: Particle insertion: Less insertions than requested (../fix_insert.cpp:814)
INFO: Particle insertion ins_acc: inserted 4 particle templates (mass 1.608495e-04) at step 398738
 - a total of 230 particle templates (mass 9.248849e-03) inserted so far.
WARNING: Particle insertion: Less insertions than requested (../fix_insert.cpp:814)
INFO: Particle insertion ins_con: inserted 66 particle templates (mass 4.777231e-02) at step 399602
 - a total of 1960 particle templates (mass 1.418693e+00) inserted so far.
WARNING: Particle insertion: Less insertions than requested (../fix_insert.cpp:814)
INFO: Particle insertion ins_acc: inserted 4 particle templates (mass 1.608495e-04) at step 400242
 - a total of 234 particle templates (mass 9.409698e-03) inserted so far.
WARNING: Particle insertion: Less insertions than requested (../fix_insert.cpp:814)
INFO: Particle insertion ins_acc: inserted 4 particle templates (mass 1.608495e-04) at step 401746
 - a total of 238 particle templates (mass 9.570548e-03) inserted so far.
WARNING: Particle insertion: Less insertions than requested (../fix_insert.cpp:814)
INFO: Particle insertion ins_con: inserted 69 particle templates (mass 4.994378e-02) at step 402802
 - a total of 2029 particle templates (mass 1.468637e+00) inserted so far.
WARNING: Particle insertion: Less insertions than requested (../fix_insert.cpp:814)
INFO: Particle insertion ins_acc: inserted 4 particle templates (mass 1.608495e-04) at step 403250
 - a total of 242 particle templates (mass 9.731397e-03) inserted so far.
WARNING: Particle insertion: Less insertions than requested (../fix_insert.cpp:814)
INFO: Particle insertion ins_acc: inserted 4 particle templates (mass 1.608495e-04) at step 404754
 - a total of 246 particle templates (mass 9.892247e-03) inserted so far.
WARNING: Particle insertion: Less insertions than requested (../fix_insert.cpp:814)
INFO: Particle insertion ins_con: inserted 68 particle templates (mass 4.921996e-02) at step 406002
 - a total of 2097 particle templates (mass 1.517857e+00) inserted so far.
WARNING: Particle insertion: Less insertions than requested (../fix_insert.cpp:814)
INFO: Particle insertion ins_acc: inserted 4 particle templates (mass 1.608495e-04) at step 406258
 - a total of 250 particle templates (mass 1.005310e-02) inserted so far.
WARNING: Particle insertion: Less insertions than requested (../fix_insert.cpp:814)
INFO: Particle insertion ins_acc: inserted 3 particle templates (mass 1.206372e-04) at step 407762
 - a total of 253 particle templates (mass 1.017373e-02) inserted so far.
WARNING: Particle insertion: Less insertions than requested (../fix_insert.cpp:814)
INFO: Particle insertion ins_con: inserted 69 particle templates (mass 4.994378e-02) at step 409202
 - a total of 2166 particle templates (mass 1.567801e+00) inserted so far.
WARNING: Particle insertion: Less insertions than requested (../fix_insert.cpp:814)
INFO: Particle insertion ins_acc: inserted 4 particle templates (mass 1.608495e-04) at step 409266
 - a total of 257 particle templates (mass 1.033458e-02) inserted so far.
WARNING: Particle insertion: Less insertions than requested (../fix_insert.cpp:814)
INFO: Particle insertion ins_acc: inserted 4 particle templates (mass 1.608495e-04) at step 410770
 - a total of 261 particle templates (mass 1.049543e-02) inserted so far.
WARNING: Particle insertion: Less insertions than requested (../fix_insert.cpp:814)
INFO: Particle insertion ins_acc: inserted 4 particle templates (mass 1.608495e-04) at step 412274
 - a total of 265 particle templates (mass 1.065628e-02) inserted so far.
WARNING: Particle insertion: Less insertions than requested (../fix_insert.cpp:814)
INFO: Particle insertion ins_con: inserted 67 particle templates (mass 4.849614e-02) at step 412402
 - a total of 2233 particle templates (mass 1.616297e+00) inserted so far.
WARNING: Particle insertion: Less insertions than requested (../fix_insert.cpp:814)
INFO: Particle insertion ins_acc: inserted 3 particle templates (mass 1.206372e-04) at step 413778
 - a total of 268 particle templates (mass 1.077692e-02) inserted so far.
WARNING: Particle insertion: Less insertions than requested (../fix_insert.cpp:814)
INFO: Particle insertion ins_acc: inserted 4 particle templates (mass 1.608495e-04) at step 415282
 - a total of 272 particle templates (mass 1.093777e-02) inserted so far.
WARNING: Particle insertion: Less insertions than requested (../fix_insert.cpp:814)
INFO: Particle insertion ins_con: inserted 68 particle templates (mass 4.921996e-02) at step 415602
 - a total of 2301 particle templates (mass 1.665517e+00) inserted so far.
WARNING: Particle insertion: Less insertions than requested (../fix_insert.cpp:814)
INFO: Particle insertion ins_acc: inserted 4 particle templates (mass 1.608495e-04) at step 416786
 - a total of 276 particle templates (mass 1.109862e-02) inserted so far.
WARNING: Particle insertion: Less insertions than requested (../fix_insert.cpp:814)
INFO: Particle insertion ins_acc: inserted 4 particle templates (mass 1.608495e-04) at step 418290
 - a total of 280 particle templates (mass 1.125947e-02) inserted so far.
WARNING: Particle insertion: Less insertions than requested (../fix_insert.cpp:814)
INFO: Particle insertion ins_con: inserted 71 particle templates (mass 5.139143e-02) at step 418802
 - a total of 2372 particle templates (mass 1.716908e+00) inserted so far.
WARNING: Particle insertion: Less insertions than requested (../fix_insert.cpp:814)
INFO: Particle insertion ins_acc: inserted 4 particle templates (mass 1.608495e-04) at step 419794
 - a total of 284 particle templates (mass 1.142032e-02) inserted so far.
WARNING: Particle insertion: Less insertions than requested (../fix_insert.cpp:814)
INFO: Particle insertion ins_acc: inserted 4 particle templates (mass 1.608495e-04) at step 421298
 - a total of 288 particle templates (mass 1.158117e-02) inserted so far.
WARNING: Particle insertion: Less insertions than requested (../fix_insert.cpp:814)
INFO: Particle insertion ins_con: inserted 73 particle templates (mass 5.283908e-02) at step 422002
 - a total of 2445 particle templates (mass 1.769747e+00) inserted so far.
WARNING: Particle insertion: Less insertions than requested (../fix_insert.cpp:814)
INFO: Particle insertion ins_acc: inserted 3 particle templates (mass 1.206372e-04) at step 422802
 - a total of 291 particle templates (mass 1.170180e-02) inserted so far.
WARNING: Particle insertion: Less insertions than requested (../fix_insert.cpp:814)
INFO: Particle insertion ins_acc: inserted 4 particle templates (mass 1.608495e-04) at step 424306
 - a total of 295 particle templates (mass 1.186265e-02) inserted so far.
WARNING: Particle insertion: Less insertions than requested (../fix_insert.cpp:814)
INFO: Particle insertion ins_con: inserted 71 particle templates (mass 5.139143e-02) at step 425202
 - a total of 2516 particle templates (mass 1.821139e+00) inserted so far.
WARNING: Particle insertion: Less insertions than requested (../fix_insert.cpp:814)
INFO: Particle insertion ins_acc: inserted 4 particle templates (mass 1.608495e-04) at step 425810
 - a total of 299 particle templates (mass 1.202350e-02) inserted so far.
WARNING: Particle insertion: Less insertions than requested (../fix_insert.cpp:814)
INFO: Particle insertion ins_acc: inserted 3 particle templates (mass 1.206372e-04) at step 427314
 - a total of 302 particle templates (mass 1.214414e-02) inserted so far.
WARNING: Particle insertion: Less insertions than requested (../fix_insert.cpp:814)
INFO: Particle insertion ins_con: inserted 71 particle templates (mass 5.139143e-02) at step 428402
 - a total of 2587 particle templates (mass 1.872530e+00) inserted so far.
WARNING: Particle insertion: Less insertions than requested (../fix_insert.cpp:814)
INFO: Particle insertion ins_acc: inserted 4 particle templates (mass 1.608495e-04) at step 428818
 - a total of 306 particle templates (mass 1.230499e-02) inserted so far.
WARNING: Particle insertion: Less insertions than requested (../fix_insert.cpp:814)
INFO: Particle insertion ins_acc: inserted 4 particle templates (mass 1.608495e-04) at step 430322
 - a total of 310 particle templates (mass 1.246584e-02) inserted so far.
WARNING: Particle insertion: Less insertions than requested (../fix_insert.cpp:814)
INFO: Particle insertion ins_con: inserted 66 particle templates (mass 4.777231e-02) at step 431602
 - a total of 2653 particle templates (mass 1.920302e+00) inserted so far.
WARNING: Particle insertion: Less insertions than requested (../fix_insert.cpp:814)
INFO: Particle insertion ins_acc: inserted 3 particle templates (mass 1.206372e-04) at step 431826
 - a total of 313 particle templates (mass 1.258648e-02) inserted so far.
WARNING: Particle insertion: Less insertions than requested (../fix_insert.cpp:814)
INFO: Particle insertion ins_acc: inserted 4 particle templates (mass 1.608495e-04) at step 433330
 - a total of 317 particle templates (mass 1.274733e-02) inserted so far.
WARNING: Particle insertion: Less insertions than requested (../fix_insert.cpp:814)
INFO: Particle insertion ins_con: inserted 65 particle templates (mass 4.704849e-02) at step 434802
 - a total of 2718 particle templates (mass 1.967351e+00) inserted so far.
WARNING: Particle insertion: Less insertions than requested (../fix_insert.cpp:814)
INFO: Particle insertion ins_acc: inserted 5 particle templates (mass 2.010619e-04) at step 434834
 - a total of 322 particle templates (mass 1.294839e-02) inserted so far.
WARNING: Particle insertion: Less insertions than requested (../fix_insert.cpp:814)
INFO: Particle insertion ins_acc: inserted 4 particle templates (mass 1.608495e-04) at step 436338
 - a total of 326 particle templates (mass 1.310924e-02) inserted so far.
WARNING: Particle insertion: Less insertions than requested (../fix_insert.cpp:814)
INFO: Particle insertion ins_acc: inserted 4 particle templates (mass 1.608495e-04) at step 437842
 - a total of 330 particle templates (mass 1.327009e-02) inserted so far.
WARNING: Particle insertion: Less insertions than requested (../fix_insert.cpp:814)
INFO: Particle insertion ins_con: inserted 65 particle templates (mass 4.704849e-02) at step 438002
 - a total of 2783 particle templates (mass 2.014399e+00) inserted so far.
WARNING: Particle insertion: Less insertions than requested (../fix_insert.cpp:814)
INFO: Particle insertion ins_acc: inserted 4 particle templates (mass 1.608495e-04) at step 439346
 - a total of 334 particle templates (mass 1.343094e-02) inserted so far.
WARNING: Particle insertion: Less insertions than requested (../fix_insert.cpp:814)
INFO: Particle insertion ins_acc: inserted 3 particle templates (mass 1.206372e-04) at step 440850
 - a total of 337 particle templates (mass 1.355157e-02) inserted so far.
WARNING: Particle insertion: Less insertions than requested (../fix_insert.cpp:814)
INFO: Particle insertion ins_con: inserted 64 particle templates (mass 4.632467e-02) at step 441202
 - a total of 2847 particle templates (mass 2.060724e+00) inserted so far.
WARNING: Particle insertion: Less insertions than requested (../fix_insert.cpp:814)
INFO: Particle insertion ins_acc: inserted 4 particle templates (mass 1.608495e-04) at step 442354
 - a total of 341 particle templates (mass 1.371242e-02) inserted so far.
WARNING: Particle insertion: Less insertions than requested (../fix_insert.cpp:814)
INFO: Particle insertion ins_acc: inserted 3 particle templates (mass 1.206372e-04) at step 443858
 - a total of 344 particle templates (mass 1.383306e-02) inserted so far.
WARNING: Particle insertion: Less insertions than requested (../fix_insert.cpp:814)
INFO: Particle insertion ins_con: inserted 71 particle templates (mass 5.139143e-02) at step 444402
 - a total of 2918 particle templates (mass 2.112115e+00) inserted so far.
WARNING: Particle insertion: Less insertions than requested (../fix_insert.cpp:814)
INFO: Particle insertion ins_acc: inserted 4 particle templates (mass 1.608495e-04) at step 445362
 - a total of 348 particle templates (mass 1.399391e-02) inserted so far.
WARNING: Particle insertion: Less insertions than requested (../fix_insert.cpp:814)
INFO: Particle insertion ins_acc: inserted 4 particle templates (mass 1.608495e-04) at step 446866
 - a total of 352 particle templates (mass 1.415476e-02) inserted so far.
WARNING: Particle insertion: Less insertions than requested (../fix_insert.cpp:814)
INFO: Particle insertion ins_con: inserted 74 particle templates (mass 5.356290e-02) at step 447602
 - a total of 2992 particle templates (mass 2.165678e+00) inserted so far.
WARNING: Particle insertion: Less insertions than requested (../fix_insert.cpp:814)
INFO: Particle insertion ins_acc: inserted 3 particle templates (mass 1.206372e-04) at step 448370
 - a total of 355 particle templates (mass 1.427540e-02) inserted so far.
WARNING: Particle insertion: Less insertions than requested (../fix_insert.cpp:814)
INFO: Particle insertion ins_acc: inserted 4 particle templates (mass 1.608495e-04) at step 449874
 - a total of 359 particle templates (mass 1.443625e-02) inserted so far.
WARNING: Particle insertion: Less insertions than requested (../fix_insert.cpp:814)
INFO: Particle insertion ins_con: inserted 59 particle templates (mass 4.270555e-02) at step 450802
 - a total of 3051 particle templates (mass 2.208384e+00) inserted so far.
WARNING: Particle insertion: Less insertions than requested (../fix_insert.cpp:814)
INFO: Particle insertion ins_acc: inserted 3 particle templates (mass 1.206372e-04) at step 451378
 - a total of 362 particle templates (mass 1.455688e-02) inserted so far.
WARNING: Particle insertion: Less insertions than requested (../fix_insert.cpp:814)
INFO: Particle insertion ins_acc: inserted 4 particle templates (mass 1.608495e-04) at step 452882
 - a total of 366 particle templates (mass 1.471773e-02) inserted so far.
WARNING: Particle insertion: Less insertions than requested (../fix_insert.cpp:814)
INFO: Particle insertion ins_con: inserted 72 particle templates (mass 5.211525e-02) at step 454002
[...]
 - a total of 4834 particle templates (mass 3.498960e+00) inserted so far.
WARNING: Particle insertion: Less insertions than requested (../fix_insert.cpp:814)
INFO: Particle insertion ins_acc: inserted 4 particle templates (mass 1.608495e-04) at step 534098
 - a total of 570 particle templates (mass 2.292106e-02) inserted so far.
WARNING: Particle insertion: Less insertions than requested (../fix_insert.cpp:814)
INFO: Particle insertion ins_acc: inserted 4 particle templates (mass 1.608495e-04) at step 535602
 - a total of 574 particle templates (mass 2.308191e-02) inserted so far.
WARNING: Particle insertion: Less insertions than requested (../fix_insert.cpp:814)
INFO: Particle insertion ins_acc: inserted 4 particle templates (mass 1.608495e-04) at step 537106
 - a total of 578 particle templates (mass 2.324276e-02) inserted so far.
WARNING: Particle insertion: Less insertions than requested (../fix_insert.cpp:814)
INFO: Particle insertion ins_con: inserted 72 particle templates (mass 5.211525e-02) at step 537202
 - a total of 4906 particle templates (mass 3.551075e+00) inserted so far.
WARNING: Particle insertion: Less insertions than requested (../fix_insert.cpp:814)
INFO: Particle insertion ins_acc: inserted 3 particle templates (mass 1.206372e-04) at step 538610
 - a total of 581 particle templates (mass 2.336340e-02) inserted so far.
WARNING: Particle insertion: Less insertions than requested (../fix_insert.cpp:814)
INFO: Particle insertion ins_acc: inserted 5 particle templates (mass 2.010619e-04) at step 540114
 - a total of 586 particle templates (mass 2.356446e-02) inserted so far.
WARNING: Particle insertion: Less insertions than requested (../fix_insert.cpp:814)
INFO: Particle insertion ins_con: inserted 68 particle templates (mass 4.921996e-02) at step 540402
 - a total of 4974 particle templates (mass 3.600295e+00) inserted so far.
WARNING: Particle insertion: Less insertions than requested (../fix_insert.cpp:814)
INFO: Particle insertion ins_acc: inserted 4 particle templates (mass 1.608495e-04) at step 541618
 - a total of 590 particle templates (mass 2.372531e-02) inserted so far.
WARNING: Particle insertion: Less insertions than requested (../fix_insert.cpp:814)
INFO: Particle insertion ins_acc: inserted 4 particle templates (mass 1.608495e-04) at step 543122
 - a total of 594 particle templates (mass 2.388616e-02) inserted so far.
WARNING: Particle insertion: Less insertions than requested (../fix_insert.cpp:814)
INFO: Particle insertion ins_con: inserted 71 particle templates (mass 5.139143e-02) at step 543602
 - a total of 5045 particle templates (mass 3.651687e+00) inserted so far.
WARNING: Particle insertion: Less insertions than requested (../fix_insert.cpp:814)
INFO: Particle insertion ins_acc: inserted 3 particle templates (mass 1.206372e-04) at step 544626
 - a total of 597 particle templates (mass 2.400679e-02) inserted so far.
WARNING: Particle insertion: Less insertions than requested (../fix_insert.cpp:814)
INFO: Particle insertion ins_acc: inserted 4 particle templates (mass 1.608495e-04) at step 546130
 - a total of 601 particle templates (mass 2.416764e-02) inserted so far.
WARNING: Particle insertion: Less insertions than requested (../fix_insert.cpp:814)
INFO: Particle insertion ins_con: inserted 63 particle templates (mass 4.560085e-02) at step 546802
 - a total of 5108 particle templates (mass 3.697288e+00) inserted so far.
WARNING: Particle insertion: Less insertions than requested (../fix_insert.cpp:814)
INFO: Particle insertion ins_acc: inserted 4 particle templates (mass 1.608495e-04) at step 547634
 - a total of 605 particle templates (mass 2.432849e-02) inserted so far.
WARNING: Particle insertion: Less insertions than requested (../fix_insert.cpp:814)
INFO: Particle insertion ins_acc: inserted 4 particle templates (mass 1.608495e-04) at step 549138
 - a total of 609 particle templates (mass 2.448934e-02) inserted so far.
WARNING: Particle insertion: Less insertions than requested (../fix_insert.cpp:814)
INFO: Particle insertion ins_con: inserted 70 particle templates (mass 5.066761e-02) at step 550002
 - a total of 5178 particle templates (mass 3.747955e+00) inserted so far.
WARNING: Particle insertion: Less insertions than requested (../fix_insert.cpp:814)
INFO: Particle insertion ins_acc: inserted 4 particle templates (mass 1.608495e-04) at step 550642
 - a total of 613 particle templates (mass 2.465019e-02) inserted so far.
WARNING: Particle insertion: Less insertions than requested (../fix_insert.cpp:814)
INFO: Particle insertion ins_acc: inserted 4 particle templates (mass 1.608495e-04) at step 552146
 - a total of 617 particle templates (mass 2.481104e-02) inserted so far.
WARNING: Particle insertion: Less insertions than requested (../fix_insert.cpp:814)
INFO: Particle insertion ins_con: inserted 76 particle templates (mass 5.501054e-02) at step 553202
 - a total of 5254 particle templates (mass 3.802966e+00) inserted so far.
WARNING: Particle insertion: Less insertions than requested (../fix_insert.cpp:814)
INFO: Particle insertion ins_acc: inserted 5 particle templates (mass 2.010619e-04) at step 553650
 - a total of 622 particle templates (mass 2.501210e-02) inserted so far.
WARNING: Particle insertion: Less insertions than requested (../fix_insert.cpp:814)
INFO: Particle insertion ins_acc: inserted 4 particle templates (mass 1.608495e-04) at step 555154
 - a total of 626 particle templates (mass 2.517295e-02) inserted so far.
WARNING: Particle insertion: Less insertions than requested (../fix_insert.cpp:814)
INFO: Particle insertion ins_con: inserted 69 particle templates (mass 4.994378e-02) at step 556402
 - a total of 5323 particle templates (mass 3.852910e+00) inserted so far.
WARNING: Particle insertion: Less insertions than requested (../fix_insert.cpp:814)
INFO: Particle insertion ins_acc: inserted 4 particle templates (mass 1.608495e-04) at step 556658
 - a total of 630 particle templates (mass 2.533380e-02) inserted so far.
WARNING: Particle insertion: Less insertions than requested (../fix_insert.cpp:814)
INFO: Particle insertion ins_acc: inserted 3 particle templates (mass 1.206372e-04) at step 558162
 - a total of 633 particle templates (mass 2.545444e-02) inserted so far.
WARNING: Particle insertion: Less insertions than requested (../fix_insert.cpp:814)
INFO: Particle insertion ins_con: inserted 68 particle templates (mass 4.921996e-02) at step 559602
 - a total of 5391 particle templates (mass 3.902130e+00) inserted so far.
WARNING: Particle insertion: Less insertions than requested (../fix_insert.cpp:814)
INFO: Particle insertion ins_acc: inserted 4 particle templates (mass 1.608495e-04) at step 559666
 - a total of 637 particle templates (mass 2.561529e-02) inserted so far.
WARNING: Particle insertion: Less insertions than requested (../fix_insert.cpp:814)
INFO: Particle insertion ins_acc: inserted 4 particle templates (mass 1.608495e-04) at step 561170
 - a total of 641 particle templates (mass 2.577614e-02) inserted so far.
WARNING: Particle insertion: Less insertions than requested (../fix_insert.cpp:814)
INFO: Particle insertion ins_acc: inserted 4 particle templates (mass 1.608495e-04) at step 562674
 - a total of 645 particle templates (mass 2.593699e-02) inserted so far.
WARNING: Particle insertion: Less insertions than requested (../fix_insert.cpp:814)
INFO: Particle insertion ins_con: inserted 67 particle templates (mass 4.849614e-02) at step 562802
 - a total of 5458 particle templates (mass 3.950626e+00) inserted so far.
WARNING: Particle insertion: Less insertions than requested (../fix_insert.cpp:814)
INFO: Particle insertion ins_acc: inserted 5 particle templates (mass 2.010619e-04) at step 564178
 - a total of 650 particle templates (mass 2.613805e-02) inserted so far.
WARNING: Particle insertion: Less insertions than requested (../fix_insert.cpp:814)
INFO: Particle insertion ins_acc: inserted 3 particle templates (mass 1.206372e-04) at step 565682
 - a total of 653 particle templates (mass 2.625869e-02) inserted so far.
WARNING: Particle insertion: Less insertions than requested (../fix_insert.cpp:814)
INFO: Particle insertion ins_con: inserted 68 particle templates (mass 4.921996e-02) at step 566002
 - a total of 5526 particle templates (mass 3.999846e+00) inserted so far.
WARNING: Particle insertion: Less insertions than requested (../fix_insert.cpp:814)
INFO: Particle insertion ins_acc: inserted 3 particle templates (mass 1.206372e-04) at step 567186
 - a total of 656 particle templates (mass 2.637933e-02) inserted so far.
WARNING: Particle insertion: Less insertions than requested (../fix_insert.cpp:814)
INFO: Particle insertion ins_acc: inserted 4 particle templates (mass 1.608495e-04) at step 568690
 - a total of 660 particle templates (mass 2.654017e-02) inserted so far.
WARNING: Particle insertion: Less insertions than requested (../fix_insert.cpp:814)
INFO: Particle insertion ins_con: inserted 72 particle templates (mass 5.211525e-02) at step 569202
 - a total of 5598 particle templates (mass 4.051961e+00) inserted so far.
WARNING: Particle insertion: Less insertions than requested (../fix_insert.cpp:814)
INFO: Particle insertion ins_acc: inserted 3 particle templates (mass 1.206372e-04) at step 570194
 - a total of 663 particle templates (mass 2.666081e-02) inserted so far.
WARNING: Particle insertion: Less insertions than requested (../fix_insert.cpp:814)
INFO: Particle insertion ins_acc: inserted 4 particle templates (mass 1.608495e-04) at step 571698
 - a total of 667 particle templates (mass 2.682166e-02) inserted so far.
WARNING: Particle insertion: Less insertions than requested (../fix_insert.cpp:814)
INFO: Particle insertion ins_con: inserted 66 particle templates (mass 4.777231e-02) at step 572402
 - a total of 5664 particle templates (mass 4.099733e+00) inserted so far.
WARNING: Particle insertion: Less insertions than requested (../fix_insert.cpp:814)
INFO: Particle insertion ins_acc: inserted 4 particle templates (mass 1.608495e-04) at step 573202
 - a total of 671 particle templates (mass 2.698251e-02) inserted so far.
WARNING: Particle insertion: Less insertions than requested (../fix_insert.cpp:814)
INFO: Particle insertion ins_acc: inserted 4 particle templates (mass 1.608495e-04) at step 574706
 - a total of 675 particle templates (mass 2.714336e-02) inserted so far.
WARNING: Particle insertion: Less insertions than requested (../fix_insert.cpp:814)
INFO: Particle insertion ins_con: inserted 72 particle templates (mass 5.211525e-02) at step 575602
 - a total of 5736 particle templates (mass 4.151848e+00) inserted so far.
WARNING: Particle insertion: Less insertions than requested (../fix_insert.cpp:814)
INFO: Particle insertion ins_acc: inserted 5 particle templates (mass 2.010619e-04) at step 576210
 - a total of 680 particle templates (mass 2.734442e-02) inserted so far.
WARNING: Particle insertion: Less insertions than requested (../fix_insert.cpp:814)
INFO: Particle insertion ins_acc: inserted 3 particle templates (mass 1.206372e-04) at step 577714
 - a total of 683 particle templates (mass 2.746506e-02) inserted so far.
WARNING: Particle insertion: Less insertions than requested (../fix_insert.cpp:814)
INFO: Particle insertion ins_con: inserted 64 particle templates (mass 4.632467e-02) at step 578802
 - a total of 5800 particle templates (mass 4.198173e+00) inserted so far.
WARNING: Particle insertion: Less insertions than requested (../fix_insert.cpp:814)
INFO: Particle insertion ins_acc: inserted 4 particle templates (mass 1.608495e-04) at step 579218
 - a total of 687 particle templates (mass 2.762591e-02) inserted so far.
WARNING: Particle insertion: Less insertions than requested (../fix_insert.cpp:814)
INFO: Particle insertion ins_acc: inserted 3 particle templates (mass 1.206372e-04) at step 580722
 - a total of 690 particle templates (mass 2.774655e-02) inserted so far.
WARNING: Particle insertion: Less insertions than requested (../fix_insert.cpp:814)
INFO: Particle insertion ins_con: inserted 75 particle templates (mass 5.428672e-02) at step 582002
 - a total of 5875 particle templates (mass 4.252460e+00) inserted so far.
WARNING: Particle insertion: Less insertions than requested (../fix_insert.cpp:814)
INFO: Particle insertion ins_acc: inserted 5 particle templates (mass 2.010619e-04) at step 582226
 - a total of 695 particle templates (mass 2.794761e-02) inserted so far.
WARNING: Particle insertion: Less insertions than requested (../fix_insert.cpp:814)
INFO: Particle insertion ins_acc: inserted 4 particle templates (mass 1.608495e-04) at step 583730
 - a total of 699 particle templates (mass 2.810846e-02) inserted so far.
WARNING: Particle insertion: Less insertions than requested (../fix_insert.cpp:814)
INFO: Particle insertion ins_con: inserted 65 particle templates (mass 4.704849e-02) at step 585202
 - a total of 5940 particle templates (mass 4.299508e+00) inserted so far.
WARNING: Particle insertion: Less insertions than requested (../fix_insert.cpp:814)
INFO: Particle insertion ins_acc: inserted 3 particle templates (mass 1.206372e-04) at step 585234
 - a total of 702 particle templates (mass 2.822909e-02) inserted so far.
WARNING: Particle insertion: Less insertions than requested (../fix_insert.cpp:814)
INFO: Particle insertion ins_acc: inserted 3 particle templates (mass 1.206372e-04) at step 586738
 - a total of 705 particle templates (mass 2.834973e-02) inserted so far.
WARNING: Particle insertion: Less insertions than requested (../fix_insert.cpp:814)
INFO: Particle insertion ins_acc: inserted 4 particle templates (mass 1.608495e-04) at step 588242
 - a total of 709 particle templates (mass 2.851058e-02) inserted so far.
WARNING: Particle insertion: Less insertions than requested (../fix_insert.cpp:814)
INFO: Particle insertion ins_con: inserted 67 particle templates (mass 4.849614e-02) at step 588402
 - a total of 6007 particle templates (mass 4.348004e+00) inserted so far.
WARNING: Particle insertion: Less insertions than requested (../fix_insert.cpp:814)
INFO: Particle insertion ins_acc: inserted 3 particle templates (mass 1.206372e-04) at step 589746
 - a total of 712 particle templates (mass 2.863122e-02) inserted so far.
WARNING: Particle insertion: Less insertions than requested (../fix_insert.cpp:814)
INFO: Particle insertion ins_acc: inserted 4 particle templates (mass 1.608495e-04) at step 591250
 - a total of 716 particle templates (mass 2.879207e-02) inserted so far.
WARNING: Particle insertion: Less insertions than requested (../fix_insert.cpp:814)
INFO: Particle insertion ins_con: inserted 72 particle templates (mass 5.211525e-02) at step 591602
 - a total of 6079 particle templates (mass 4.400120e+00) inserted so far.
WARNING: Particle insertion: Less insertions than requested (../fix_insert.cpp:814)
INFO: Particle insertion ins_acc: inserted 3 particle templates (mass 1.206372e-04) at step 592754
 - a total of 719 particle templates (mass 2.891271e-02) inserted so far.
WARNING: Particle insertion: Less insertions than requested (../fix_insert.cpp:814)
INFO: Particle insertion ins_acc: inserted 4 particle templates (mass 1.608495e-04) at step 594258
 - a total of 723 particle templates (mass 2.907356e-02) inserted so far.
WARNING: Particle insertion: Less insertions than requested (../fix_insert.cpp:814)
INFO: Particle insertion ins_con: inserted 70 particle templates (mass 5.066761e-02) at step 594802
 - a total of 6149 particle templates (mass 4.450787e+00) inserted so far.
WARNING: Particle insertion: Less insertions than requested (../fix_insert.cpp:814)
INFO: Particle insertion ins_acc: inserted 4 particle templates (mass 1.608495e-04) at step 595762
 - a total of 727 particle templates (mass 2.923440e-02) inserted so far.
WARNING: Particle insertion: Less insertions than requested (../fix_insert.cpp:814)
INFO: Particle insertion ins_acc: inserted 4 particle templates (mass 1.608495e-04) at step 597266
 - a total of 731 particle templates (mass 2.939525e-02) inserted so far.
WARNING: Particle insertion: Less insertions than requested (../fix_insert.cpp:814)
INFO: Particle insertion ins_con: inserted 68 particle templates (mass 4.921996e-02) at step 598002
 - a total of 6217 particle templates (mass 4.500007e+00) inserted so far.
WARNING: Particle insertion: Less insertions than requested (../fix_insert.cpp:814)
INFO: Particle insertion ins_acc: inserted 4 particle templates (mass 1.608495e-04) at step 598770
 - a total of 735 particle templates (mass 2.955610e-02) inserted so far.
WARNING: Particle insertion: Less insertions than requested (../fix_insert.cpp:814)
INFO: Particle insertion ins_acc: inserted 5 particle templates (mass 2.010619e-04) at step 600274
 - a total of 740 particle templates (mass 2.975717e-02) inserted so far.
WARNING: Particle insertion: Less insertions than requested (../fix_insert.cpp:814)
INFO: Particle insertion ins_con: inserted 65 particle templates (mass 4.704849e-02) at step 601202
 - a total of 6282 particle templates (mass 4.547056e+00) inserted so far.
WARNING: Particle insertion: Less insertions than requested (../fix_insert.cpp:814)
INFO: Particle insertion ins_acc: inserted 4 particle templates (mass 1.608495e-04) at step 601778
 - a total of 744 particle templates (mass 2.991802e-02) inserted so far.
WARNING: Particle insertion: Less insertions than requested (../fix_insert.cpp:814)
INFO: Particle insertion ins_acc: inserted 4 particle templates (mass 1.608495e-04) at step 603282
 - a total of 748 particle templates (mass 3.007886e-02) inserted so far.
WARNING: Particle insertion: Less insertions than requested (../fix_insert.cpp:814)
INFO: Particle insertion ins_con: inserted 73 particle templates (mass 5.283908e-02) at step 604402
 - a total of 6355 particle templates (mass 4.599895e+00) inserted so far.
WARNING: Particle insertion: Less insertions than requested (../fix_insert.cpp:814)
INFO: Particle insertion ins_acc: inserted 5 particle templates (mass 2.010619e-04) at step 604786
 - a total of 753 particle templates (mass 3.027993e-02) inserted so far.
WARNING: Particle insertion: Less insertions than requested (../fix_insert.cpp:814)
INFO: Particle insertion ins_acc: inserted 4 particle templates (mass 1.608495e-04) at step 606290
 - a total of 757 particle templates (mass 3.044078e-02) inserted so far.
WARNING: Particle insertion: Less insertions than requested (../fix_insert.cpp:814)
INFO: Particle insertion ins_con: inserted 65 particle templates (mass 4.704849e-02) at step 607602
 - a total of 6420 particle templates (mass 4.646943e+00) inserted so far.
WARNING: Particle insertion: Less insertions than requested (../fix_insert.cpp:814)
INFO: Particle insertion ins_acc: inserted 3 particle templates (mass 1.206372e-04) at step 607794
 - a total of 760 particle templates (mass 3.056141e-02) inserted so far.
WARNING: Particle insertion: Less insertions than requested (../fix_insert.cpp:814)
INFO: Particle insertion ins_acc: inserted 4 particle templates (mass 1.608495e-04) at step 609298
 - a total of 764 particle templates (mass 3.072226e-02) inserted so far.
WARNING: Particle insertion: Less insertions than requested (../fix_insert.cpp:814)
  610001     9855     0.11331991      7792.2488 
Loop time of 7792.25 on 6 procs for 300000 steps with 9855 atoms, finish time Thu Mar 30 03:29:38 2023


Pair  time (%) = 239.584 (3.07465)
Neigh time (%) = 87.6218 (1.12447)
Comm  time (%) = 792.776 (10.1739)
Outpt time (%) = 39.2026 (0.503098)
Other time (%) = 6633.06 (85.1239)

Nlocal:    1642.5 ave 4653 max 0 min
Histogram: 4 0 0 0 0 0 0 0 0 2
Nghost:    469.667 ave 1009 max 0 min
Histogram: 2 0 0 0 2 0 0 0 0 2
Neighs:    27684.7 ave 78567 max 0 min
Histogram: 4 0 0 0 0 0 0 0 0 2

Total # of neighbors = 166108
Ave neighs/atom = 16.8552
Neighbor list builds = 34709
Dangerous builds = 14314

unfix 	ins_con
unfix   ins_acc
unfix	Movescrew
unfix	Movescrew_inv

write_restart resrart/reactor.restart

