LIGGGHTS (Version LIGGGHTS-PUBLIC 3.8.0, compiled 2023-03-15-17:42:14 by weitinglinux, git commit 9fb7f67592be9304afca9cb6840892b3b7d048d6)
###Header for General commands###

#Simulation of particles
atom_style	granular
boundary	f f f			        #fixed boundaries -> particles will be deleted if leaving the simulation box
units		si
communicate	single vel yes	#default

newton		off				#default

###System variables###

#Definition of boundaries [m]
variable xmin equal -0.2
variable xmax equal 0.2

variable ymin equal -0.3
variable ymax equal 0.3

variable zmin equal -0.3
variable zmax equal 0.5

#Definition of the timestep
#timestep = 0.0001 second; Each iteration step represents 0.0001 seconds.
variable dt equal 2e-4


###Specific variables for current simulation####

variable natoms equal 2 	        #1 -> particle #2->funnel, screw, and screw_inv

#Variable for material properties#

#Young Modulus
#soft_particles yes
variable	youngModulusCon 	equal 	5e6	#N/mm² (30 to 50Gpa)
variable	youngModulus    	equal 	5e6	#N/mm² (30 to 50Gpa)

variable	youngModulusAcc 	equal 	2e4	#N/mm² (10Gpa)

#Poission ratio
variable 	poissionCon1	equal	0.3
variable 	poissionCon2	equal	0.3
variable 	poissionAcc	equal	0.25

#variable for contact properties#

#coefficient of restitution
variable	CoR11	equal	0.6
variable	CoR12	equal	0.6
variable	CoR21	equal	0.6
variable	CoR22	equal	0.6

#sliding friction coefficient
variable	sf11	equal	0.5
variable	sf12	equal	0.5
variable	sf21	equal	0.5
variable	sf22	equal	0.5

#rolling friction coefficient
variable	rf11	equal	0.05
variable	rf12	equal	0.05
variable	rf21	equal	0.05
variable	rf22	equal	0.05


#Variable for particle##

#Number of particle radius
variable	nradii	equal	2

#Concrete particles

variable	radiusCon1	equal	0.004	#m Fine aggregates
variable	radiusCon2	equal	0.008	#m Coarse aggregates

variable	frac1	        equal	0.6		#70%
variable	frac2	        equal	0.4		#30%

variable	densityCon	equal	2700	        #kg/m³ #aggregate desnsity


#Accelerator particles

variable	radiusAcc	equal	0.002	        #m
variable	densityAcc	equal	1200	        #kg/m³

#filling parameters#

##define the flowrate
variable        timeFactor	equal	10.0				#60 seconds
variable        filltime	equal	30.0				#60 seconds
variable        fillVoulume     equal   1.5                             	#Liter

#fill concrete
variable	fillmass	equal	${densityCon}*(${fillVoulume}/1000)	#kg
variable	fillmass	equal	2700*(${fillVoulume}/1000)	
variable	fillmass	equal	2700*(1.5/1000)	
variable	fillmassrate	equal	${fillmass}/${filltime}	                #kg/s
variable	fillmassrate	equal	4.05/${filltime}	                
variable	fillmassrate	equal	4.05/30	                

#fill concrete
variable        factor          equal   0.1
variable	fillmassAcc	equal	${densityAcc}*${fillmass}*${factor}     #kg
variable	fillmassAcc	equal	1200*${fillmass}*${factor}     
variable	fillmassAcc	equal	1200*4.05*${factor}     
variable	fillmassAcc	equal	1200*4.05*0.1     
variable	fillmassrateAcc	equal	${fillmassAcc}/${filltime}	        #kg
variable	fillmassrateAcc	equal	486/${filltime}	        
variable	fillmassrateAcc	equal	486/30	        

variable	fillsteps	equal	${filltime}/${dt}		#Transform time to iteration steps
variable	fillsteps	equal	30/${dt}		
variable	fillsteps	equal	30/0.0002		

## define the speed
# rpm = roataion per minute
# ex. 60 rpm = 60 rev/min = 1 rev/s
variable        screwSpeed      equal   80.0                             #rpm
variable        screwPeriod     equal   ${screwSpeed}/60.0               #s/rev ,period of the srew rotation (time for 1 rotation)
variable        screwPeriod     equal   80/60.0               



####settle time####
variable	settletime	equal	1.0                             #second
variable	settlesteps	equal	${settletime}/${dt}		#Transform time to iteration steps
variable	settlesteps	equal	1/${dt}		
variable	settlesteps	equal	1/0.0002		


####mixing time####
variable	mixingTime	equal	30.0                              #sec
variable	mixingSteps	equal	${mixingTime}/${dt}		#Transform time to iteration steps
variable	mixingSteps	equal	30/${dt}		
variable	mixingSteps	equal	30/0.0002		


####Definition of simulationbox####
region		domain block ${xmin} ${xmax} ${ymin} ${ymax} ${zmin} ${zmax} units box
region		domain block -0.2 ${xmax} ${ymin} ${ymax} ${zmin} ${zmax} units box
region		domain block -0.2 0.2 ${ymin} ${ymax} ${zmin} ${zmax} units box
region		domain block -0.2 0.2 -0.3 ${ymax} ${zmin} ${zmax} units box
region		domain block -0.2 0.2 -0.3 0.3 ${zmin} ${zmax} units box
region		domain block -0.2 0.2 -0.3 0.3 -0.3 ${zmax} units box
region		domain block -0.2 0.2 -0.3 0.3 -0.3 0.5 units box
create_box	2 domain
Created orthogonal box = (-0.2 -0.3 -0.3) to (0.2 0.3 0.5)
  1 by 2 by 3 MPI processor grid
neighbor	0.002 bin		# 2x of particle radius may be good
neigh_modify	delay 0		        #default


####Definition of the contact models####

pair_style gran model hertz tangential history rolling_friction epsd2	#contact model
WARNING: 
	The contact model you specified is not located in any whitelist.
	Because of this the model will be run in an unoptimized version (increasing runtime by up to 20%).
	In order to optimize this model you have the following options:
		(i)  Run the genAutoExamplesWhitelist.sh script in your LIGGGHTS(R) source folder to automatically parse the input script
		(ii) Add the model combination by hand to your style_contact_model_user.whitelist that can be found in your LIGGGHTS(R) source folder
		(iii) Use the ENABLE_MODEL_* flag when building with cmake.
	If you perform one of the steps above LIGGGHTS(R) needs to be recompiled to generate the optimized code.

 (../contact_models.h:365)
pair_coeff * * 								#default

timestep ${dt}
timestep 0.0002

fix	integrator all nve/sphere			#default
fix	gravi all gravity 9.81 vector 0.0 0.0 -1.0	#gravity of 9.81 m/s² in negative z direction



###efinition of Material properties####

fix 	m1 all property/global youngsModulus peratomtype ${youngModulusCon} ${youngModulus}
fix 	m1 all property/global youngsModulus peratomtype 5000000 ${youngModulus}
fix 	m1 all property/global youngsModulus peratomtype 5000000 5000000
fix 	m2 all property/global poissonsRatio peratomtype ${poissionCon1} ${poissionAcc}
fix 	m2 all property/global poissonsRatio peratomtype 0.3 ${poissionAcc}
fix 	m2 all property/global poissonsRatio peratomtype 0.3 0.25
fix 	m3 all property/global coefficientRestitution peratomtypepair ${natoms} ${CoR11} ${CoR12} ${CoR21} ${CoR22}
fix 	m3 all property/global coefficientRestitution peratomtypepair 2 ${CoR11} ${CoR12} ${CoR21} ${CoR22}
fix 	m3 all property/global coefficientRestitution peratomtypepair 2 0.6 ${CoR12} ${CoR21} ${CoR22}
fix 	m3 all property/global coefficientRestitution peratomtypepair 2 0.6 0.6 ${CoR21} ${CoR22}
fix 	m3 all property/global coefficientRestitution peratomtypepair 2 0.6 0.6 0.6 ${CoR22}
fix 	m3 all property/global coefficientRestitution peratomtypepair 2 0.6 0.6 0.6 0.6
fix 	m4 all property/global coefficientFriction peratomtypepair ${natoms} ${sf11} ${sf12} ${sf21} ${sf22}
fix 	m4 all property/global coefficientFriction peratomtypepair 2 ${sf11} ${sf12} ${sf21} ${sf22}
fix 	m4 all property/global coefficientFriction peratomtypepair 2 0.5 ${sf12} ${sf21} ${sf22}
fix 	m4 all property/global coefficientFriction peratomtypepair 2 0.5 0.5 ${sf21} ${sf22}
fix 	m4 all property/global coefficientFriction peratomtypepair 2 0.5 0.5 0.5 ${sf22}
fix 	m4 all property/global coefficientFriction peratomtypepair 2 0.5 0.5 0.5 0.5
fix 	m5 all property/global coefficientRollingFriction peratomtypepair ${natoms} ${rf11} ${rf12} ${rf21} ${rf22}
fix 	m5 all property/global coefficientRollingFriction peratomtypepair 2 ${rf11} ${rf12} ${rf21} ${rf22}
fix 	m5 all property/global coefficientRollingFriction peratomtypepair 2 0.05 ${rf12} ${rf21} ${rf22}
fix 	m5 all property/global coefficientRollingFriction peratomtypepair 2 0.05 0.05 ${rf21} ${rf22}
fix 	m5 all property/global coefficientRollingFriction peratomtypepair 2 0.05 0.05 0.05 ${rf22}
fix 	m5 all property/global coefficientRollingFriction peratomtypepair 2 0.05 0.05 0.05 0.05


###Generation and Loading of the Geometry####

#load mesh from STL file. Type 2 for geometry. Scale down to transform mm to meters
fix	funnel 		all mesh/surface file meshes/funnel_in_out.stl type 2 scale 0.001
fix	inlet_pipe 	all mesh/surface file meshes/inlet.stl type 2 scale 0.001
fix	outlet_pipe 	all mesh/surface file meshes/outlet.stl type 2 scale 0.001

fix	screw 		all mesh/surface file meshes/impeller_1.stl type 2 scale 0.001 curvature 1e-5 curvature_tolerant yes
fix	screw_inv 	all mesh/surface file meshes/impeller_inver_2.stl type 2 scale 0.001 curvature 1e-5 curvature_tolerant yes

fix	walls 		all wall/gran model hertz tangential history rolling_friction epsd2 mesh n_meshes 5 meshes funnel inlet_pipe outlet_pipe screw screw_inv
WARNING: 
	The contact model you specified is not located in any whitelist.
	Because of this the model will be run in an unoptimized version (increasing runtime by up to 20%).
	In order to optimize this model you have the following options:
		(i)  Run the genAutoExamplesWhitelist.sh script in your LIGGGHTS(R) source folder to automatically parse the input script
		(ii) Add the model combination by hand to your style_contact_model_user.whitelist that can be found in your LIGGGHTS(R) source folder
		(iii) Use the ENABLE_MODEL_* flag when building with cmake.
	If you perform one of the steps above LIGGGHTS(R) needs to be recompiled to generate the optimized code.

 (../contact_models.h:365)



####Generation and Insertion of the particles####

fix	pts1 all particletemplate/sphere 10487 atom_type 1 density constant ${densityCon} radius constant ${radiusCon1}
fix	pts1 all particletemplate/sphere 10487 atom_type 1 density constant 2700 radius constant ${radiusCon1}
fix	pts1 all particletemplate/sphere 10487 atom_type 1 density constant 2700 radius constant 0.004
#fix	pts2 all particletemplate/sphere 11887 atom_type 1 density constant ${densityCon} radius constant ${radiusCon2}
fix	pts3 all particletemplate/sphere 10487 atom_type 1 density constant ${densityAcc} radius constant ${radiusAcc}
fix	pts3 all particletemplate/sphere 10487 atom_type 1 density constant 1200 radius constant ${radiusAcc}
fix	pts3 all particletemplate/sphere 10487 atom_type 1 density constant 1200 radius constant 0.002

#fix 	pdd1 all particledistribution/discrete 32452867 ${nradii} pts1 ${frac1} pts2 ${frac2}

fix 	pdd1 all particledistribution/discrete 32452867 1 pts1 1.0
fix 	pdd2 all particledistribution/discrete 32452843 1 pts3 1.0

fix	ins_mesh_con all mesh/surface/planar file meshes/insertion_con.stl  type 1 scale 0.001
fix	ins_mesh_acc all mesh/surface/planar file meshes/insertion_acc.stl  type 1 scale 0.001

fix 	ins_con_fill all insert/stream seed 86028121 distributiontemplate pdd1         mass ${fillmass} massrate ${fillmassrate} overlapcheck yes all_in yes vel constant  0.25  0  0         insertion_face ins_mesh_con extrude_length 0.08
fix 	ins_con_fill all insert/stream seed 86028121 distributiontemplate pdd1         mass 4.05 massrate ${fillmassrate} overlapcheck yes all_in yes vel constant  0.25  0  0         insertion_face ins_mesh_con extrude_length 0.08
fix 	ins_con_fill all insert/stream seed 86028121 distributiontemplate pdd1         mass 4.05 massrate 0.135 overlapcheck yes all_in yes vel constant  0.25  0  0         insertion_face ins_mesh_con extrude_length 0.08

fix	Movescrew  all move/mesh mesh screw rotate origin 0 -0.045 0 axis 0 0 -1 period ${screwPeriod}
fix	Movescrew  all move/mesh mesh screw rotate origin 0 -0.045 0 axis 0 0 -1 period 1.33333333333333
fix	Movescrew_inv  all move/mesh mesh screw_inv rotate origin 0 0.045 0 axis 0 0 1 period ${screwPeriod}
fix	Movescrew_inv  all move/mesh mesh screw_inv rotate origin 0 0.045 0 axis 0 0 1 period 1.33333333333333

####Dumping of the data for post-processing to visualize####

shell	rmdir post
shell 	mkdir post
shell   mkdir simu

#Definition of the dumptime

variable dumptime equal 0.05	                        # Every 0.05 s 1 image
variable dumpstep equal ${dumptime}/${dt}	        #Transform to iteration steps
variable dumpstep equal 0.05/${dt}	        
variable dumpstep equal 0.05/0.0002	        


####Run####

#Run simulation iteration==1 and dump the file
run    	1
Setting up run at Sun Apr  2 22:11:50 2023

WARNING: Fix mesh: Mesh contains highly skewed element, moving mesh (if used) will not parallelize well (../surface_mesh_I.h:657)
WARNING: Fix mesh: Mesh contains highly skewed element, moving mesh (if used) will not parallelize well (../surface_mesh_I.h:657)
INFO: Particle insertion ins_con_fill: 59.683104 particles every 1600 steps - particle rate 186.509699, (mass rate 1.350000e-01)
      5595 particles (mass 4.049789e+00) within 148800 steps
Memory usage per processor = 20.3145 Mbytes
    Step    Atoms         KinEng            CPU 
       0        0              0              0 
INFO: Particle insertion ins_con_fill: inserted 58 particle templates (mass 4.198173e-02) at step 1
 - a total of 58 particle templates (mass 4.198173e-02) inserted so far.
WARNING: Particle insertion: Less insertions than requested (../fix_insert.cpp:814)
       1       58   0.0013119291    0.022241589 
Loop time of 0.0222542 on 6 procs for 1 steps with 58 atoms, finish time Sun Apr  2 22:11:51 2023


Pair  time (%) = 4.28583e-06 (0.0192586)
Neigh time (%) = 0.000467898 (2.10252)
Comm  time (%) = 0.00134266 (6.03329)
Outpt time (%) = 0.00624958 (28.0827)
Other time (%) = 0.0141897 (63.7622)

Nlocal:    9.66667 ave 29 max 0 min
Histogram: 4 0 0 0 0 0 0 0 0 2
Nghost:    7.33333 ave 22 max 0 min
Histogram: 4 0 0 0 0 0 0 0 0 2
Neighs:    10.1667 ave 35 max 0 min
Histogram: 4 0 0 0 0 0 0 1 0 1

Total # of neighbors = 61
Ave neighs/atom = 1.05172
Neighbor list builds = 1
Dangerous builds = 0
dump   	dmpparticle all custom/vtk ${dumpstep} post/particles_*.vtk id type type x y z ix iy iz vx vy vz fx fy fz omegax omegay omegaz radius
dump   	dmpparticle all custom/vtk 250 post/particles_*.vtk id type type x y z ix iy iz vx vy vz fx fy fz omegax omegay omegaz radius
dump   	dumpfunnel all mesh/stl ${dumpstep} post/funnel*.stl funnel
dump   	dumpfunnel all mesh/stl 250 post/funnel*.stl funnel
dump   	dumppipe all mesh/stl ${dumpstep} post/pipe*.stl outlet_pipe inlet_pipe
dump   	dumppipe all mesh/stl 250 post/pipe*.stl outlet_pipe inlet_pipe
dump	dumpscrew all mesh/stl ${dumpstep} post/screw*.stl screw screw_inv
dump	dumpscrew all mesh/stl 250 post/screw*.stl screw screw_inv

#Run simulation

#infill the funnel
run     ${fillsteps}/3
run     150000/3
Setting up run at Sun Apr  2 22:11:51 2023

Memory usage per processor = 20.3145 Mbytes
    Step    Atoms         KinEng            CPU 
       1       58   0.0013119291              0 
INFO: Particle insertion ins_con_fill: inserted 58 particle templates (mass 4.198173e-02) at step 1601
 - a total of 116 particle templates (mass 8.396346e-02) inserted so far.
WARNING: Particle insertion: Less insertions than requested (../fix_insert.cpp:814)
INFO: Particle insertion ins_con_fill: inserted 60 particle templates (mass 4.342938e-02) at step 3201
 - a total of 176 particle templates (mass 1.273928e-01) inserted so far.
INFO: Particle insertion ins_con_fill: inserted 60 particle templates (mass 4.342938e-02) at step 4801
 - a total of 236 particle templates (mass 1.708222e-01) inserted so far.
INFO: Particle insertion ins_con_fill: inserted 60 particle templates (mass 4.342938e-02) at step 6401
 - a total of 296 particle templates (mass 2.142516e-01) inserted so far.
INFO: Particle insertion ins_con_fill: inserted 58 particle templates (mass 4.198173e-02) at step 8001
 - a total of 354 particle templates (mass 2.562333e-01) inserted so far.
WARNING: Particle insertion: Less insertions than requested (../fix_insert.cpp:814)
INFO: Particle insertion ins_con_fill: inserted 58 particle templates (mass 4.198173e-02) at step 9601
 - a total of 412 particle templates (mass 2.982151e-01) inserted so far.
WARNING: Particle insertion: Less insertions than requested (../fix_insert.cpp:814)
INFO: Particle insertion ins_con_fill: inserted 60 particle templates (mass 4.342938e-02) at step 11201
 - a total of 472 particle templates (mass 3.416444e-01) inserted so far.
INFO: Particle insertion ins_con_fill: inserted 60 particle templates (mass 4.342938e-02) at step 12801
 - a total of 532 particle templates (mass 3.850738e-01) inserted so far.
INFO: Particle insertion ins_con_fill: inserted 57 particle templates (mass 4.125791e-02) at step 14401
 - a total of 589 particle templates (mass 4.263317e-01) inserted so far.
WARNING: Particle insertion: Less insertions than requested (../fix_insert.cpp:814)
INFO: Particle insertion ins_con_fill: inserted 59 particle templates (mass 4.270555e-02) at step 16001
 - a total of 648 particle templates (mass 4.690373e-01) inserted so far.
INFO: Particle insertion ins_con_fill: inserted 60 particle templates (mass 4.342938e-02) at step 17601
 - a total of 708 particle templates (mass 5.124666e-01) inserted so far.
INFO: Particle insertion ins_con_fill: inserted 59 particle templates (mass 4.270555e-02) at step 19201
 - a total of 767 particle templates (mass 5.551722e-01) inserted so far.
WARNING: Particle insertion: Less insertions than requested (../fix_insert.cpp:814)
INFO: Particle insertion ins_con_fill: inserted 59 particle templates (mass 4.270555e-02) at step 20801
 - a total of 826 particle templates (mass 5.978778e-01) inserted so far.
INFO: Particle insertion ins_con_fill: inserted 60 particle templates (mass 4.342938e-02) at step 22401
 - a total of 886 particle templates (mass 6.413071e-01) inserted so far.
INFO: Particle insertion ins_con_fill: inserted 59 particle templates (mass 4.270555e-02) at step 24001
 - a total of 945 particle templates (mass 6.840127e-01) inserted so far.
INFO: Particle insertion ins_con_fill: inserted 59 particle templates (mass 4.270555e-02) at step 25601
 - a total of 1004 particle templates (mass 7.267182e-01) inserted so far.
INFO: Particle insertion ins_con_fill: inserted 60 particle templates (mass 4.342938e-02) at step 27201
 - a total of 1064 particle templates (mass 7.701476e-01) inserted so far.
INFO: Particle insertion ins_con_fill: inserted 57 particle templates (mass 4.125791e-02) at step 28801
 - a total of 1121 particle templates (mass 8.114055e-01) inserted so far.
WARNING: Particle insertion: Less insertions than requested (../fix_insert.cpp:814)
INFO: Particle insertion ins_con_fill: inserted 57 particle templates (mass 4.125791e-02) at step 30401
 - a total of 1178 particle templates (mass 8.526634e-01) inserted so far.
WARNING: Particle insertion: Less insertions than requested (../fix_insert.cpp:814)
INFO: Particle insertion ins_con_fill: inserted 60 particle templates (mass 4.342938e-02) at step 32001
 - a total of 1238 particle templates (mass 8.960928e-01) inserted so far.
INFO: Particle insertion ins_con_fill: inserted 59 particle templates (mass 4.270555e-02) at step 33601
 - a total of 1297 particle templates (mass 9.387984e-01) inserted so far.
INFO: Particle insertion ins_con_fill: inserted 59 particle templates (mass 4.270555e-02) at step 35201
 - a total of 1356 particle templates (mass 9.815039e-01) inserted so far.
WARNING: Particle insertion: Less insertions than requested (../fix_insert.cpp:814)
INFO: Particle insertion ins_con_fill: inserted 59 particle templates (mass 4.270555e-02) at step 36801
 - a total of 1415 particle templates (mass 1.024209e+00) inserted so far.
INFO: Particle insertion ins_con_fill: inserted 58 particle templates (mass 4.198173e-02) at step 38401
 - a total of 1473 particle templates (mass 1.066191e+00) inserted so far.
WARNING: Particle insertion: Less insertions than requested (../fix_insert.cpp:814)
INFO: Particle insertion ins_con_fill: inserted 60 particle templates (mass 4.342938e-02) at step 40001
 - a total of 1533 particle templates (mass 1.109621e+00) inserted so far.
INFO: Particle insertion ins_con_fill: inserted 58 particle templates (mass 4.198173e-02) at step 41601
 - a total of 1591 particle templates (mass 1.151602e+00) inserted so far.
WARNING: Particle insertion: Less insertions than requested (../fix_insert.cpp:814)
INFO: Particle insertion ins_con_fill: inserted 59 particle templates (mass 4.270555e-02) at step 43201
 - a total of 1650 particle templates (mass 1.194308e+00) inserted so far.
INFO: Particle insertion ins_con_fill: inserted 59 particle templates (mass 4.270555e-02) at step 44801
 - a total of 1709 particle templates (mass 1.237013e+00) inserted so far.
INFO: Particle insertion ins_con_fill: inserted 60 particle templates (mass 4.342938e-02) at step 46401
 - a total of 1769 particle templates (mass 1.280443e+00) inserted so far.
INFO: Particle insertion ins_con_fill: inserted 58 particle templates (mass 4.198173e-02) at step 48001
 - a total of 1827 particle templates (mass 1.322425e+00) inserted so far.
WARNING: Particle insertion: Less insertions than requested (../fix_insert.cpp:814)
INFO: Particle insertion ins_con_fill: inserted 60 particle templates (mass 4.342938e-02) at step 49601
 - a total of 1887 particle templates (mass 1.365854e+00) inserted so far.
INFO: Particle insertion ins_con_fill: inserted 59 particle templates (mass 4.270555e-02) at step 51201
 - a total of 1946 particle templates (mass 1.408559e+00) inserted so far.
INFO: Particle insertion ins_con_fill: inserted 60 particle templates (mass 4.342938e-02) at step 52801
 - a total of 2006 particle templates (mass 1.451989e+00) inserted so far.
INFO: Particle insertion ins_con_fill: inserted 59 particle templates (mass 4.270555e-02) at step 54401
 - a total of 2065 particle templates (mass 1.494694e+00) inserted so far.
INFO: Particle insertion ins_con_fill: inserted 60 particle templates (mass 4.342938e-02) at step 56001
 - a total of 2125 particle templates (mass 1.538124e+00) inserted so far.
INFO: Particle insertion ins_con_fill: inserted 59 particle templates (mass 4.270555e-02) at step 57601
 - a total of 2184 particle templates (mass 1.580829e+00) inserted so far.
WARNING: Particle insertion: Less insertions than requested (../fix_insert.cpp:814)
INFO: Particle insertion ins_con_fill: inserted 60 particle templates (mass 4.342938e-02) at step 59201
 - a total of 2244 particle templates (mass 1.624259e+00) inserted so far.
INFO: Particle insertion ins_con_fill: inserted 59 particle templates (mass 4.270555e-02) at step 60801
 - a total of 2303 particle templates (mass 1.666964e+00) inserted so far.
WARNING: Particle insertion: Less insertions than requested (../fix_insert.cpp:814)
INFO: Particle insertion ins_con_fill: inserted 60 particle templates (mass 4.342938e-02) at step 62401
 - a total of 2363 particle templates (mass 1.710394e+00) inserted so far.
INFO: Particle insertion ins_con_fill: inserted 59 particle templates (mass 4.270555e-02) at step 64001
 - a total of 2422 particle templates (mass 1.753099e+00) inserted so far.
WARNING: Particle insertion: Less insertions than requested (../fix_insert.cpp:814)
INFO: Particle insertion ins_con_fill: inserted 59 particle templates (mass 4.270555e-02) at step 65601
 - a total of 2481 particle templates (mass 1.795805e+00) inserted so far.
WARNING: Particle insertion: Less insertions than requested (../fix_insert.cpp:814)
INFO: Particle insertion ins_con_fill: inserted 59 particle templates (mass 4.270555e-02) at step 67201
 - a total of 2540 particle templates (mass 1.838510e+00) inserted so far.
INFO: Particle insertion ins_con_fill: inserted 57 particle templates (mass 4.125791e-02) at step 68801
 - a total of 2597 particle templates (mass 1.879768e+00) inserted so far.
WARNING: Particle insertion: Less insertions than requested (../fix_insert.cpp:814)
INFO: Particle insertion ins_con_fill: inserted 60 particle templates (mass 4.342938e-02) at step 70401
 - a total of 2657 particle templates (mass 1.923198e+00) inserted so far.
INFO: Particle insertion ins_con_fill: inserted 60 particle templates (mass 4.342938e-02) at step 72001
 - a total of 2717 particle templates (mass 1.966627e+00) inserted so far.
INFO: Particle insertion ins_con_fill: inserted 59 particle templates (mass 4.270555e-02) at step 73601
 - a total of 2776 particle templates (mass 2.009333e+00) inserted so far.
INFO: Particle insertion ins_con_fill: inserted 60 particle templates (mass 4.342938e-02) at step 75201
 - a total of 2836 particle templates (mass 2.052762e+00) inserted so far.
INFO: Particle insertion ins_con_fill: inserted 58 particle templates (mass 4.198173e-02) at step 76801
 - a total of 2894 particle templates (mass 2.094744e+00) inserted so far.
WARNING: Particle insertion: Less insertions than requested (../fix_insert.cpp:814)
INFO: Particle insertion ins_con_fill: inserted 59 particle templates (mass 4.270555e-02) at step 78401
 - a total of 2953 particle templates (mass 2.137449e+00) inserted so far.
WARNING: Particle insertion: Less insertions than requested (../fix_insert.cpp:814)
INFO: Particle insertion ins_con_fill: inserted 60 particle templates (mass 4.342938e-02) at step 80001
 - a total of 3013 particle templates (mass 2.180879e+00) inserted so far.
INFO: Particle insertion ins_con_fill: inserted 59 particle templates (mass 4.270555e-02) at step 81601
 - a total of 3072 particle templates (mass 2.223584e+00) inserted so far.
INFO: Particle insertion ins_con_fill: inserted 60 particle templates (mass 4.342938e-02) at step 83201
 - a total of 3132 particle templates (mass 2.267013e+00) inserted so far.
INFO: Particle insertion ins_con_fill: inserted 59 particle templates (mass 4.270555e-02) at step 84801
 - a total of 3191 particle templates (mass 2.309719e+00) inserted so far.
INFO: Particle insertion ins_con_fill: inserted 59 particle templates (mass 4.270555e-02) at step 86401
 - a total of 3250 particle templates (mass 2.352425e+00) inserted so far.
INFO: Particle insertion ins_con_fill: inserted 56 particle templates (mass 4.053409e-02) at step 88001
 - a total of 3306 particle templates (mass 2.392959e+00) inserted so far.
WARNING: Particle insertion: Less insertions than requested (../fix_insert.cpp:814)
INFO: Particle insertion ins_con_fill: inserted 59 particle templates (mass 4.270555e-02) at step 89601
 - a total of 3365 particle templates (mass 2.435664e+00) inserted so far.
INFO: Particle insertion ins_con_fill: inserted 59 particle templates (mass 4.270555e-02) at step 91201
 - a total of 3424 particle templates (mass 2.478370e+00) inserted so far.
WARNING: Particle insertion: Less insertions than requested (../fix_insert.cpp:814)
INFO: Particle insertion ins_con_fill: inserted 59 particle templates (mass 4.270555e-02) at step 92801
 - a total of 3483 particle templates (mass 2.521075e+00) inserted so far.
INFO: Particle insertion ins_con_fill: inserted 59 particle templates (mass 4.270555e-02) at step 94401
 - a total of 3542 particle templates (mass 2.563781e+00) inserted so far.
WARNING: Particle insertion: Less insertions than requested (../fix_insert.cpp:814)
INFO: Particle insertion ins_con_fill: inserted 60 particle templates (mass 4.342938e-02) at step 96001
 - a total of 3602 particle templates (mass 2.607210e+00) inserted so far.
INFO: Particle insertion ins_con_fill: inserted 60 particle templates (mass 4.342938e-02) at step 97601
 - a total of 3662 particle templates (mass 2.650640e+00) inserted so far.
INFO: Particle insertion ins_con_fill: inserted 59 particle templates (mass 4.270555e-02) at step 99201
 - a total of 3721 particle templates (mass 2.693345e+00) inserted so far.
INFO: Particle insertion ins_con_fill: inserted 59 particle templates (mass 4.270555e-02) at step 100801
 - a total of 3780 particle templates (mass 2.736051e+00) inserted so far.
INFO: Particle insertion ins_con_fill: inserted 60 particle templates (mass 4.342938e-02) at step 102401
 - a total of 3840 particle templates (mass 2.779480e+00) inserted so far.
INFO: Particle insertion ins_con_fill: inserted 59 particle templates (mass 4.270555e-02) at step 104001
 - a total of 3899 particle templates (mass 2.822186e+00) inserted so far.
INFO: Particle insertion ins_con_fill: inserted 60 particle templates (mass 4.342938e-02) at step 105601
 - a total of 3959 particle templates (mass 2.865615e+00) inserted so far.
INFO: Particle insertion ins_con_fill: inserted 58 particle templates (mass 4.198173e-02) at step 107201
 - a total of 4017 particle templates (mass 2.907597e+00) inserted so far.
WARNING: Particle insertion: Less insertions than requested (../fix_insert.cpp:814)
INFO: Particle insertion ins_con_fill: inserted 57 particle templates (mass 4.125791e-02) at step 108801
 - a total of 4074 particle templates (mass 2.948855e+00) inserted so far.
WARNING: Particle insertion: Less insertions than requested (../fix_insert.cpp:814)
INFO: Particle insertion ins_con_fill: inserted 60 particle templates (mass 4.342938e-02) at step 110401
 - a total of 4134 particle templates (mass 2.992284e+00) inserted so far.
INFO: Particle insertion ins_con_fill: inserted 60 particle templates (mass 4.342938e-02) at step 112001
 - a total of 4194 particle templates (mass 3.035713e+00) inserted so far.
INFO: Particle insertion ins_con_fill: inserted 60 particle templates (mass 4.342938e-02) at step 113601
 - a total of 4254 particle templates (mass 3.079143e+00) inserted so far.
INFO: Particle insertion ins_con_fill: inserted 60 particle templates (mass 4.342938e-02) at step 115201
 - a total of 4314 particle templates (mass 3.122572e+00) inserted so far.
INFO: Particle insertion ins_con_fill: inserted 60 particle templates (mass 4.342938e-02) at step 116801
 - a total of 4374 particle templates (mass 3.166002e+00) inserted so far.
INFO: Particle insertion ins_con_fill: inserted 60 particle templates (mass 4.342938e-02) at step 118401
 - a total of 4434 particle templates (mass 3.209431e+00) inserted so far.
INFO: Particle insertion ins_con_fill: inserted 57 particle templates (mass 4.125791e-02) at step 120001
 - a total of 4491 particle templates (mass 3.250689e+00) inserted so far.
WARNING: Particle insertion: Less insertions than requested (../fix_insert.cpp:814)
INFO: Particle insertion ins_con_fill: inserted 59 particle templates (mass 4.270555e-02) at step 121601
 - a total of 4550 particle templates (mass 3.293394e+00) inserted so far.
WARNING: Particle insertion: Less insertions than requested (../fix_insert.cpp:814)
INFO: Particle insertion ins_con_fill: inserted 59 particle templates (mass 4.270555e-02) at step 123201
 - a total of 4609 particle templates (mass 3.336100e+00) inserted so far.
INFO: Particle insertion ins_con_fill: inserted 58 particle templates (mass 4.198173e-02) at step 124801
 - a total of 4667 particle templates (mass 3.378082e+00) inserted so far.
WARNING: Particle insertion: Less insertions than requested (../fix_insert.cpp:814)
INFO: Particle insertion ins_con_fill: inserted 60 particle templates (mass 4.342938e-02) at step 126401
 - a total of 4727 particle templates (mass 3.421511e+00) inserted so far.
INFO: Particle insertion ins_con_fill: inserted 60 particle templates (mass 4.342938e-02) at step 128001
 - a total of 4787 particle templates (mass 3.464940e+00) inserted so far.
INFO: Particle insertion ins_con_fill: inserted 59 particle templates (mass 4.270555e-02) at step 129601
 - a total of 4846 particle templates (mass 3.507646e+00) inserted so far.
INFO: Particle insertion ins_con_fill: inserted 60 particle templates (mass 4.342938e-02) at step 131201
 - a total of 4906 particle templates (mass 3.551075e+00) inserted so far.
INFO: Particle insertion ins_con_fill: inserted 59 particle templates (mass 4.270555e-02) at step 132801
 - a total of 4965 particle templates (mass 3.593781e+00) inserted so far.
WARNING: Particle insertion: Less insertions than requested (../fix_insert.cpp:814)
INFO: Particle insertion ins_con_fill: inserted 60 particle templates (mass 4.342938e-02) at step 134401
 - a total of 5025 particle templates (mass 3.637210e+00) inserted so far.
INFO: Particle insertion ins_con_fill: inserted 60 particle templates (mass 4.342938e-02) at step 136001
 - a total of 5085 particle templates (mass 3.680640e+00) inserted so far.
INFO: Particle insertion ins_con_fill: inserted 58 particle templates (mass 4.198173e-02) at step 137601
 - a total of 5143 particle templates (mass 3.722621e+00) inserted so far.
WARNING: Particle insertion: Less insertions than requested (../fix_insert.cpp:814)
INFO: Particle insertion ins_con_fill: inserted 60 particle templates (mass 4.342938e-02) at step 139201
 - a total of 5203 particle templates (mass 3.766051e+00) inserted so far.
INFO: Particle insertion ins_con_fill: inserted 60 particle templates (mass 4.342938e-02) at step 140801
 - a total of 5263 particle templates (mass 3.809480e+00) inserted so far.
INFO: Particle insertion ins_con_fill: inserted 60 particle templates (mass 4.342938e-02) at step 142401
 - a total of 5323 particle templates (mass 3.852910e+00) inserted so far.
INFO: Particle insertion ins_con_fill: inserted 59 particle templates (mass 4.270555e-02) at step 144001
 - a total of 5382 particle templates (mass 3.895615e+00) inserted so far.
INFO: Particle insertion ins_con_fill: inserted 60 particle templates (mass 4.342938e-02) at step 145601
 - a total of 5442 particle templates (mass 3.939044e+00) inserted so far.
INFO: Particle insertion ins_con_fill: inserted 60 particle templates (mass 4.342938e-02) at step 147201
 - a total of 5502 particle templates (mass 3.982474e+00) inserted so far.
INFO: Particle insertion ins_con_fill: inserted 60 particle templates (mass 4.342938e-02) at step 148801
 - a total of 5562 particle templates (mass 4.025903e+00) inserted so far.
  150001     5276    0.056535177      1865.1696 
Loop time of 1865.17 on 6 procs for 150000 steps with 5276 atoms, finish time Sun Apr  2 22:42:56 2023


Pair  time (%) = 21.2525 (1.13944)
Neigh time (%) = 64.3983 (3.45268)
Comm  time (%) = 236.971 (12.7051)
Outpt time (%) = 23.285 (1.24841)
Other time (%) = 1519.26 (81.4544)

Nlocal:    879.333 ave 2707 max 0 min
Histogram: 4 0 0 0 0 0 0 0 0 2
Nghost:    93.6667 ave 296 max 0 min
Histogram: 4 0 0 0 0 0 0 0 1 1
Neighs:    3764.33 ave 11732 max 0 min
Histogram: 4 0 0 0 0 0 0 0 0 2

Total # of neighbors = 22586
Ave neighs/atom = 4.28089
Neighbor list builds = 87873
Dangerous builds = 61245


fix 	ins_acc_fill all insert/stream seed 86028121 distributiontemplate pdd2         mass ${fillmassAcc} massrate ${fillmassrateAcc} overlapcheck yes all_in yes vel constant 0.15  0.2  0          insertion_face ins_mesh_acc extrude_length 0.02
fix 	ins_acc_fill all insert/stream seed 86028121 distributiontemplate pdd2         mass 486 massrate ${fillmassrateAcc} overlapcheck yes all_in yes vel constant 0.15  0.2  0          insertion_face ins_mesh_acc extrude_length 0.02
fix 	ins_acc_fill all insert/stream seed 86028121 distributiontemplate pdd2         mass 486 massrate 16.2 overlapcheck yes all_in yes vel constant 0.15  0.2  0          insertion_face ins_mesh_acc extrude_length 0.02


run     ${mixingSteps}
run     150000
Setting up run at Sun Apr  2 22:42:56 2023

INFO: Particle insertion ins_acc_fill: 36499.202043 particles every 453 steps - particle rate 402860.949701, (mass rate 1.620000e+01)
      12085828 particles (mass 4.860000e+02) within 149943 steps
Memory usage per processor = 26.5728 Mbytes
    Step    Atoms         KinEng            CPU 
  150001     5276    0.056535177              0 
INFO: Particle insertion ins_acc_fill: inserted 5 particle templates (mass 2.010619e-04) at step 150002
 - a total of 5 particle templates (mass 2.010619e-04) inserted so far.
WARNING: Particle insertion: Less insertions than requested (../fix_insert.cpp:814)
INFO: Particle insertion ins_con_fill: inserted 33 particle templates (mass 2.388616e-02) at step 150401
 - a total of 5595 particle templates (mass 4.049789e+00) inserted so far.
INFO: Particle insertion ins_acc_fill: inserted 3 particle templates (mass 1.206372e-04) at step 150455
 - a total of 8 particle templates (mass 3.216991e-04) inserted so far.
WARNING: Particle insertion: Less insertions than requested (../fix_insert.cpp:814)
INFO: Particle insertion ins_acc_fill: inserted 3 particle templates (mass 1.206372e-04) at step 150908
 - a total of 11 particle templates (mass 4.423362e-04) inserted so far.
WARNING: Particle insertion: Less insertions than requested (../fix_insert.cpp:814)
INFO: Particle insertion ins_acc_fill: inserted 4 particle templates (mass 1.608495e-04) at step 151361
 - a total of 15 particle templates (mass 6.031858e-04) inserted so far.
WARNING: Particle insertion: Less insertions than requested (../fix_insert.cpp:814)
INFO: Particle insertion ins_acc_fill: inserted 4 particle templates (mass 1.608495e-04) at step 151814
 - a total of 19 particle templates (mass 7.640353e-04) inserted so far.
WARNING: Particle insertion: Less insertions than requested (../fix_insert.cpp:814)
INFO: Particle insertion ins_acc_fill: inserted 4 particle templates (mass 1.608495e-04) at step 152267
 - a total of 23 particle templates (mass 9.248849e-04) inserted so far.
WARNING: Particle insertion: Less insertions than requested (../fix_insert.cpp:814)
INFO: Particle insertion ins_acc_fill: inserted 3 particle templates (mass 1.206372e-04) at step 152720
 - a total of 26 particle templates (mass 1.045522e-03) inserted so far.
WARNING: Particle insertion: Less insertions than requested (../fix_insert.cpp:814)
INFO: Particle insertion ins_acc_fill: inserted 4 particle templates (mass 1.608495e-04) at step 153173
 - a total of 30 particle templates (mass 1.206372e-03) inserted so far.
WARNING: Particle insertion: Less insertions than requested (../fix_insert.cpp:814)
INFO: Particle insertion ins_acc_fill: inserted 4 particle templates (mass 1.608495e-04) at step 153626
 - a total of 34 particle templates (mass 1.367221e-03) inserted so far.
WARNING: Particle insertion: Less insertions than requested (../fix_insert.cpp:814)
INFO: Particle insertion ins_acc_fill: inserted 4 particle templates (mass 1.608495e-04) at step 154079
 - a total of 38 particle templates (mass 1.528071e-03) inserted so far.
WARNING: Particle insertion: Less insertions than requested (../fix_insert.cpp:814)
INFO: Particle insertion ins_acc_fill: inserted 4 particle templates (mass 1.608495e-04) at step 154532
 - a total of 42 particle templates (mass 1.688920e-03) inserted so far.
WARNING: Particle insertion: Less insertions than requested (../fix_insert.cpp:814)
INFO: Particle insertion ins_acc_fill: inserted 4 particle templates (mass 1.608495e-04) at step 154985
 - a total of 46 particle templates (mass 1.849770e-03) inserted so far.
WARNING: Particle insertion: Less insertions than requested (../fix_insert.cpp:814)
INFO: Particle insertion ins_acc_fill: inserted 5 particle templates (mass 2.010619e-04) at step 155438
 - a total of 51 particle templates (mass 2.050832e-03) inserted so far.
WARNING: Particle insertion: Less insertions than requested (../fix_insert.cpp:814)
INFO: Particle insertion ins_acc_fill: inserted 4 particle templates (mass 1.608495e-04) at step 155891
 - a total of 55 particle templates (mass 2.211681e-03) inserted so far.
WARNING: Particle insertion: Less insertions than requested (../fix_insert.cpp:814)
INFO: Particle insertion ins_acc_fill: inserted 4 particle templates (mass 1.608495e-04) at step 156344
 - a total of 59 particle templates (mass 2.372531e-03) inserted so far.
WARNING: Particle insertion: Less insertions than requested (../fix_insert.cpp:814)
INFO: Particle insertion ins_acc_fill: inserted 3 particle templates (mass 1.206372e-04) at step 156797
 - a total of 62 particle templates (mass 2.493168e-03) inserted so far.
WARNING: Particle insertion: Less insertions than requested (../fix_insert.cpp:814)
INFO: Particle insertion ins_acc_fill: inserted 5 particle templates (mass 2.010619e-04) at step 157250
 - a total of 67 particle templates (mass 2.694230e-03) inserted so far.
WARNING: Particle insertion: Less insertions than requested (../fix_insert.cpp:814)
INFO: Particle insertion ins_acc_fill: inserted 3 particle templates (mass 1.206372e-04) at step 157703
 - a total of 70 particle templates (mass 2.814867e-03) inserted so far.
WARNING: Particle insertion: Less insertions than requested (../fix_insert.cpp:814)
INFO: Particle insertion ins_acc_fill: inserted 4 particle templates (mass 1.608495e-04) at step 158156
 - a total of 74 particle templates (mass 2.975717e-03) inserted so far.
WARNING: Particle insertion: Less insertions than requested (../fix_insert.cpp:814)
INFO: Particle insertion ins_acc_fill: inserted 4 particle templates (mass 1.608495e-04) at step 158609
 - a total of 78 particle templates (mass 3.136566e-03) inserted so far.
WARNING: Particle insertion: Less insertions than requested (../fix_insert.cpp:814)
INFO: Particle insertion ins_acc_fill: inserted 4 particle templates (mass 1.608495e-04) at step 159062
 - a total of 82 particle templates (mass 3.297416e-03) inserted so far.
WARNING: Particle insertion: Less insertions than requested (../fix_insert.cpp:814)
INFO: Particle insertion ins_acc_fill: inserted 3 particle templates (mass 1.206372e-04) at step 159515
 - a total of 85 particle templates (mass 3.418053e-03) inserted so far.
WARNING: Particle insertion: Less insertions than requested (../fix_insert.cpp:814)
INFO: Particle insertion ins_acc_fill: inserted 4 particle templates (mass 1.608495e-04) at step 159968
 - a total of 89 particle templates (mass 3.578902e-03) inserted so far.
WARNING: Particle insertion: Less insertions than requested (../fix_insert.cpp:814)
INFO: Particle insertion ins_acc_fill: inserted 3 particle templates (mass 1.206372e-04) at step 160421
 - a total of 92 particle templates (mass 3.699540e-03) inserted so far.
WARNING: Particle insertion: Less insertions than requested (../fix_insert.cpp:814)
INFO: Particle insertion ins_acc_fill: inserted 5 particle templates (mass 2.010619e-04) at step 160874
 - a total of 97 particle templates (mass 3.900601e-03) inserted so far.
WARNING: Particle insertion: Less insertions than requested (../fix_insert.cpp:814)
INFO: Particle insertion ins_acc_fill: inserted 4 particle templates (mass 1.608495e-04) at step 161327
 - a total of 101 particle templates (mass 4.061451e-03) inserted so far.
WARNING: Particle insertion: Less insertions than requested (../fix_insert.cpp:814)
INFO: Particle insertion ins_acc_fill: inserted 3 particle templates (mass 1.206372e-04) at step 161780
 - a total of 104 particle templates (mass 4.182088e-03) inserted so far.
WARNING: Particle insertion: Less insertions than requested (../fix_insert.cpp:814)
INFO: Particle insertion ins_acc_fill: inserted 5 particle templates (mass 2.010619e-04) at step 162233
 - a total of 109 particle templates (mass 4.383150e-03) inserted so far.
WARNING: Particle insertion: Less insertions than requested (../fix_insert.cpp:814)
INFO: Particle insertion ins_acc_fill: inserted 4 particle templates (mass 1.608495e-04) at step 162686
 - a total of 113 particle templates (mass 4.544000e-03) inserted so far.
WARNING: Particle insertion: Less insertions than requested (../fix_insert.cpp:814)
INFO: Particle insertion ins_acc_fill: inserted 4 particle templates (mass 1.608495e-04) at step 163139
 - a total of 117 particle templates (mass 4.704849e-03) inserted so far.
WARNING: Particle insertion: Less insertions than requested (../fix_insert.cpp:814)
INFO: Particle insertion ins_acc_fill: inserted 3 particle templates (mass 1.206372e-04) at step 163592
 - a total of 120 particle templates (mass 4.825486e-03) inserted so far.
WARNING: Particle insertion: Less insertions than requested (../fix_insert.cpp:814)
INFO: Particle insertion ins_acc_fill: inserted 3 particle templates (mass 1.206372e-04) at step 164045
 - a total of 123 particle templates (mass 4.946123e-03) inserted so far.
WARNING: Particle insertion: Less insertions than requested (../fix_insert.cpp:814)
INFO: Particle insertion ins_acc_fill: inserted 4 particle templates (mass 1.608495e-04) at step 164498
 - a total of 127 particle templates (mass 5.106973e-03) inserted so far.
WARNING: Particle insertion: Less insertions than requested (../fix_insert.cpp:814)
INFO: Particle insertion ins_acc_fill: inserted 4 particle templates (mass 1.608495e-04) at step 164951
 - a total of 131 particle templates (mass 5.267823e-03) inserted so far.
WARNING: Particle insertion: Less insertions than requested (../fix_insert.cpp:814)
INFO: Particle insertion ins_acc_fill: inserted 4 particle templates (mass 1.608495e-04) at step 165404
 - a total of 135 particle templates (mass 5.428672e-03) inserted so far.
WARNING: Particle insertion: Less insertions than requested (../fix_insert.cpp:814)
INFO: Particle insertion ins_acc_fill: inserted 4 particle templates (mass 1.608495e-04) at step 165857
 - a total of 139 particle templates (mass 5.589522e-03) inserted so far.
WARNING: Particle insertion: Less insertions than requested (../fix_insert.cpp:814)
INFO: Particle insertion ins_acc_fill: inserted 4 particle templates (mass 1.608495e-04) at step 166310
 - a total of 143 particle templates (mass 5.750371e-03) inserted so far.
WARNING: Particle insertion: Less insertions than requested (../fix_insert.cpp:814)
INFO: Particle insertion ins_acc_fill: inserted 4 particle templates (mass 1.608495e-04) at step 166763
 - a total of 147 particle templates (mass 5.911221e-03) inserted so far.
WARNING: Particle insertion: Less insertions than requested (../fix_insert.cpp:814)
INFO: Particle insertion ins_acc_fill: inserted 3 particle templates (mass 1.206372e-04) at step 167216
 - a total of 150 particle templates (mass 6.031858e-03) inserted so far.
WARNING: Particle insertion: Less insertions than requested (../fix_insert.cpp:814)
INFO: Particle insertion ins_acc_fill: inserted 4 particle templates (mass 1.608495e-04) at step 167669
 - a total of 154 particle templates (mass 6.192707e-03) inserted so far.
WARNING: Particle insertion: Less insertions than requested (../fix_insert.cpp:814)
INFO: Particle insertion ins_acc_fill: inserted 4 particle templates (mass 1.608495e-04) at step 168122
 - a total of 158 particle templates (mass 6.353557e-03) inserted so far.
WARNING: Particle insertion: Less insertions than requested (../fix_insert.cpp:814)
INFO: Particle insertion ins_acc_fill: inserted 4 particle templates (mass 1.608495e-04) at step 168575
 - a total of 162 particle templates (mass 6.514407e-03) inserted so far.
WARNING: Particle insertion: Less insertions than requested (../fix_insert.cpp:814)
INFO: Particle insertion ins_acc_fill: inserted 3 particle templates (mass 1.206372e-04) at step 169028
 - a total of 165 particle templates (mass 6.635044e-03) inserted so far.
WARNING: Particle insertion: Less insertions than requested (../fix_insert.cpp:814)
INFO: Particle insertion ins_acc_fill: inserted 4 particle templates (mass 1.608495e-04) at step 169481
 - a total of 169 particle templates (mass 6.795893e-03) inserted so far.
WARNING: Particle insertion: Less insertions than requested (../fix_insert.cpp:814)
INFO: Particle insertion ins_acc_fill: inserted 4 particle templates (mass 1.608495e-04) at step 169934
 - a total of 173 particle templates (mass 6.956743e-03) inserted so far.
WARNING: Particle insertion: Less insertions than requested (../fix_insert.cpp:814)
INFO: Particle insertion ins_acc_fill: inserted 4 particle templates (mass 1.608495e-04) at step 170387
 - a total of 177 particle templates (mass 7.117592e-03) inserted so far.
WARNING: Particle insertion: Less insertions than requested (../fix_insert.cpp:814)
INFO: Particle insertion ins_acc_fill: inserted 4 particle templates (mass 1.608495e-04) at step 170840
 - a total of 181 particle templates (mass 7.278442e-03) inserted so far.
WARNING: Particle insertion: Less insertions than requested (../fix_insert.cpp:814)
INFO: Particle insertion ins_acc_fill: inserted 4 particle templates (mass 1.608495e-04) at step 171293
 - a total of 185 particle templates (mass 7.439291e-03) inserted so far.
WARNING: Particle insertion: Less insertions than requested (../fix_insert.cpp:814)
INFO: Particle insertion ins_acc_fill: inserted 3 particle templates (mass 1.206372e-04) at step 171746
 - a total of 188 particle templates (mass 7.559929e-03) inserted so far.
WARNING: Particle insertion: Less insertions than requested (../fix_insert.cpp:814)
INFO: Particle insertion ins_acc_fill: inserted 4 particle templates (mass 1.608495e-04) at step 172199
 - a total of 192 particle templates (mass 7.720778e-03) inserted so far.
WARNING: Particle insertion: Less insertions than requested (../fix_insert.cpp:814)
INFO: Particle insertion ins_acc_fill: inserted 4 particle templates (mass 1.608495e-04) at step 172652
 - a total of 196 particle templates (mass 7.881628e-03) inserted so far.
WARNING: Particle insertion: Less insertions than requested (../fix_insert.cpp:814)
INFO: Particle insertion ins_acc_fill: inserted 4 particle templates (mass 1.608495e-04) at step 173105
 - a total of 200 particle templates (mass 8.042477e-03) inserted so far.
WARNING: Particle insertion: Less insertions than requested (../fix_insert.cpp:814)
INFO: Particle insertion ins_acc_fill: inserted 4 particle templates (mass 1.608495e-04) at step 173558
 - a total of 204 particle templates (mass 8.203327e-03) inserted so far.
WARNING: Particle insertion: Less insertions than requested (../fix_insert.cpp:814)
INFO: Particle insertion ins_acc_fill: inserted 4 particle templates (mass 1.608495e-04) at step 174011
 - a total of 208 particle templates (mass 8.364176e-03) inserted so far.
WARNING: Particle insertion: Less insertions than requested (../fix_insert.cpp:814)
INFO: Particle insertion ins_acc_fill: inserted 5 particle templates (mass 2.010619e-04) at step 174464
 - a total of 213 particle templates (mass 8.565238e-03) inserted so far.
WARNING: Particle insertion: Less insertions than requested (../fix_insert.cpp:814)
INFO: Particle insertion ins_acc_fill: inserted 4 particle templates (mass 1.608495e-04) at step 174917
 - a total of 217 particle templates (mass 8.726088e-03) inserted so far.
WARNING: Particle insertion: Less insertions than requested (../fix_insert.cpp:814)
INFO: Particle insertion ins_acc_fill: inserted 4 particle templates (mass 1.608495e-04) at step 175370
 - a total of 221 particle templates (mass 8.886937e-03) inserted so far.
WARNING: Particle insertion: Less insertions than requested (../fix_insert.cpp:814)
INFO: Particle insertion ins_acc_fill: inserted 4 particle templates (mass 1.608495e-04) at step 175823
 - a total of 225 particle templates (mass 9.047787e-03) inserted so far.
WARNING: Particle insertion: Less insertions than requested (../fix_insert.cpp:814)
INFO: Particle insertion ins_acc_fill: inserted 4 particle templates (mass 1.608495e-04) at step 176276
 - a total of 229 particle templates (mass 9.208636e-03) inserted so far.
WARNING: Particle insertion: Less insertions than requested (../fix_insert.cpp:814)
INFO: Particle insertion ins_acc_fill: inserted 4 particle templates (mass 1.608495e-04) at step 176729
 - a total of 233 particle templates (mass 9.369486e-03) inserted so far.
WARNING: Particle insertion: Less insertions than requested (../fix_insert.cpp:814)
INFO: Particle insertion ins_acc_fill: inserted 4 particle templates (mass 1.608495e-04) at step 177182
 - a total of 237 particle templates (mass 9.530335e-03) inserted so far.
WARNING: Particle insertion: Less insertions than requested (../fix_insert.cpp:814)
INFO: Particle insertion ins_acc_fill: inserted 4 particle templates (mass 1.608495e-04) at step 177635
 - a total of 241 particle templates (mass 9.691185e-03) inserted so far.
WARNING: Particle insertion: Less insertions than requested (../fix_insert.cpp:814)
INFO: Particle insertion ins_acc_fill: inserted 4 particle templates (mass 1.608495e-04) at step 178088
 - a total of 245 particle templates (mass 9.852035e-03) inserted so far.
WARNING: Particle insertion: Less insertions than requested (../fix_insert.cpp:814)
INFO: Particle insertion ins_acc_fill: inserted 5 particle templates (mass 2.010619e-04) at step 178541
 - a total of 250 particle templates (mass 1.005310e-02) inserted so far.
WARNING: Particle insertion: Less insertions than requested (../fix_insert.cpp:814)
INFO: Particle insertion ins_acc_fill: inserted 3 particle templates (mass 1.206372e-04) at step 178994
 - a total of 253 particle templates (mass 1.017373e-02) inserted so far.
WARNING: Particle insertion: Less insertions than requested (../fix_insert.cpp:814)
INFO: Particle insertion ins_acc_fill: inserted 4 particle templates (mass 1.608495e-04) at step 179447
 - a total of 257 particle templates (mass 1.033458e-02) inserted so far.
WARNING: Particle insertion: Less insertions than requested (../fix_insert.cpp:814)
INFO: Particle insertion ins_acc_fill: inserted 4 particle templates (mass 1.608495e-04) at step 179900
 - a total of 261 particle templates (mass 1.049543e-02) inserted so far.
WARNING: Particle insertion: Less insertions than requested (../fix_insert.cpp:814)
INFO: Particle insertion ins_acc_fill: inserted 4 particle templates (mass 1.608495e-04) at step 180353
 - a total of 265 particle templates (mass 1.065628e-02) inserted so far.
WARNING: Particle insertion: Less insertions than requested (../fix_insert.cpp:814)
INFO: Particle insertion ins_acc_fill: inserted 3 particle templates (mass 1.206372e-04) at step 180806
 - a total of 268 particle templates (mass 1.077692e-02) inserted so far.
WARNING: Particle insertion: Less insertions than requested (../fix_insert.cpp:814)
INFO: Particle insertion ins_acc_fill: inserted 5 particle templates (mass 2.010619e-04) at step 181259
 - a total of 273 particle templates (mass 1.097798e-02) inserted so far.
WARNING: Particle insertion: Less insertions than requested (../fix_insert.cpp:814)
INFO: Particle insertion ins_acc_fill: inserted 3 particle templates (mass 1.206372e-04) at step 181712
 - a total of 276 particle templates (mass 1.109862e-02) inserted so far.
WARNING: Particle insertion: Less insertions than requested (../fix_insert.cpp:814)
INFO: Particle insertion ins_acc_fill: inserted 4 particle templates (mass 1.608495e-04) at step 182165
 - a total of 280 particle templates (mass 1.125947e-02) inserted so far.
WARNING: Particle insertion: Less insertions than requested (../fix_insert.cpp:814)
INFO: Particle insertion ins_acc_fill: inserted 4 particle templates (mass 1.608495e-04) at step 182618
 - a total of 284 particle templates (mass 1.142032e-02) inserted so far.
WARNING: Particle insertion: Less insertions than requested (../fix_insert.cpp:814)
INFO: Particle insertion ins_acc_fill: inserted 3 particle templates (mass 1.206372e-04) at step 183071
 - a total of 287 particle templates (mass 1.154095e-02) inserted so far.
WARNING: Particle insertion: Less insertions than requested (../fix_insert.cpp:814)
INFO: Particle insertion ins_acc_fill: inserted 4 particle templates (mass 1.608495e-04) at step 183524
 - a total of 291 particle templates (mass 1.170180e-02) inserted so far.
WARNING: Particle insertion: Less insertions than requested (../fix_insert.cpp:814)
INFO: Particle insertion ins_acc_fill: inserted 4 particle templates (mass 1.608495e-04) at step 183977
 - a total of 295 particle templates (mass 1.186265e-02) inserted so far.
WARNING: Particle insertion: Less insertions than requested (../fix_insert.cpp:814)
INFO: Particle insertion ins_acc_fill: inserted 4 particle templates (mass 1.608495e-04) at step 184430
 - a total of 299 particle templates (mass 1.202350e-02) inserted so far.
WARNING: Particle insertion: Less insertions than requested (../fix_insert.cpp:814)
INFO: Particle insertion ins_acc_fill: inserted 4 particle templates (mass 1.608495e-04) at step 184883
 - a total of 303 particle templates (mass 1.218435e-02) inserted so far.
WARNING: Particle insertion: Less insertions than requested (../fix_insert.cpp:814)
INFO: Particle insertion ins_acc_fill: inserted 4 particle templates (mass 1.608495e-04) at step 185336
 - a total of 307 particle templates (mass 1.234520e-02) inserted so far.
WARNING: Particle insertion: Less insertions than requested (../fix_insert.cpp:814)
INFO: Particle insertion ins_acc_fill: inserted 4 particle templates (mass 1.608495e-04) at step 185789
 - a total of 311 particle templates (mass 1.250605e-02) inserted so far.
WARNING: Particle insertion: Less insertions than requested (../fix_insert.cpp:814)
INFO: Particle insertion ins_acc_fill: inserted 4 particle templates (mass 1.608495e-04) at step 186242
 - a total of 315 particle templates (mass 1.266690e-02) inserted so far.
WARNING: Particle insertion: Less insertions than requested (../fix_insert.cpp:814)
INFO: Particle insertion ins_acc_fill: inserted 4 particle templates (mass 1.608495e-04) at step 186695
 - a total of 319 particle templates (mass 1.282775e-02) inserted so far.
WARNING: Particle insertion: Less insertions than requested (../fix_insert.cpp:814)
INFO: Particle insertion ins_acc_fill: inserted 4 particle templates (mass 1.608495e-04) at step 187148
 - a total of 323 particle templates (mass 1.298860e-02) inserted so far.
WARNING: Particle insertion: Less insertions than requested (../fix_insert.cpp:814)
INFO: Particle insertion ins_acc_fill: inserted 3 particle templates (mass 1.206372e-04) at step 187601
 - a total of 326 particle templates (mass 1.310924e-02) inserted so far.
WARNING: Particle insertion: Less insertions than requested (../fix_insert.cpp:814)
INFO: Particle insertion ins_acc_fill: inserted 4 particle templates (mass 1.608495e-04) at step 188054
 - a total of 330 particle templates (mass 1.327009e-02) inserted so far.
WARNING: Particle insertion: Less insertions than requested (../fix_insert.cpp:814)
INFO: Particle insertion ins_acc_fill: inserted 4 particle templates (mass 1.608495e-04) at step 188507
 - a total of 334 particle templates (mass 1.343094e-02) inserted so far.
WARNING: Particle insertion: Less insertions than requested (../fix_insert.cpp:814)
INFO: Particle insertion ins_acc_fill: inserted 4 particle templates (mass 1.608495e-04) at step 188960
 - a total of 338 particle templates (mass 1.359179e-02) inserted so far.
WARNING: Particle insertion: Less insertions than requested (../fix_insert.cpp:814)
INFO: Particle insertion ins_acc_fill: inserted 4 particle templates (mass 1.608495e-04) at step 189413
 - a total of 342 particle templates (mass 1.375264e-02) inserted so far.
WARNING: Particle insertion: Less insertions than requested (../fix_insert.cpp:814)
INFO: Particle insertion ins_acc_fill: inserted 4 particle templates (mass 1.608495e-04) at step 189866
 - a total of 346 particle templates (mass 1.391349e-02) inserted so far.
WARNING: Particle insertion: Less insertions than requested (../fix_insert.cpp:814)
INFO: Particle insertion ins_acc_fill: inserted 5 particle templates (mass 2.010619e-04) at step 190319
 - a total of 351 particle templates (mass 1.411455e-02) inserted so far.
WARNING: Particle insertion: Less insertions than requested (../fix_insert.cpp:814)
INFO: Particle insertion ins_acc_fill: inserted 4 particle templates (mass 1.608495e-04) at step 190772
 - a total of 355 particle templates (mass 1.427540e-02) inserted so far.
WARNING: Particle insertion: Less insertions than requested (../fix_insert.cpp:814)
INFO: Particle insertion ins_acc_fill: inserted 4 particle templates (mass 1.608495e-04) at step 191225
 - a total of 359 particle templates (mass 1.443625e-02) inserted so far.
WARNING: Particle insertion: Less insertions than requested (../fix_insert.cpp:814)
INFO: Particle insertion ins_acc_fill: inserted 3 particle templates (mass 1.206372e-04) at step 191678
 - a total of 362 particle templates (mass 1.455688e-02) inserted so far.
WARNING: Particle insertion: Less insertions than requested (../fix_insert.cpp:814)
INFO: Particle insertion ins_acc_fill: inserted 4 particle templates (mass 1.608495e-04) at step 192131
 - a total of 366 particle templates (mass 1.471773e-02) inserted so far.
WARNING: Particle insertion: Less insertions than requested (../fix_insert.cpp:814)
INFO: Particle insertion ins_acc_fill: inserted 4 particle templates (mass 1.608495e-04) at step 192584
 - a total of 370 particle templates (mass 1.487858e-02) inserted so far.
WARNING: Particle insertion: Less insertions than requested (../fix_insert.cpp:814)
INFO: Particle insertion ins_acc_fill: inserted 3 particle templates (mass 1.206372e-04) at step 193037
 - a total of 373 particle templates (mass 1.499922e-02) inserted so far.
WARNING: Particle insertion: Less insertions than requested (../fix_insert.cpp:814)
INFO: Particle insertion ins_acc_fill: inserted 5 particle templates (mass 2.010619e-04) at step 193490
 - a total of 378 particle templates (mass 1.520028e-02) inserted so far.
WARNING: Particle insertion: Less insertions than requested (../fix_insert.cpp:814)
INFO: Particle insertion ins_acc_fill: inserted 3 particle templates (mass 1.206372e-04) at step 193943
 - a total of 381 particle templates (mass 1.532092e-02) inserted so far.
WARNING: Particle insertion: Less insertions than requested (../fix_insert.cpp:814)
INFO: Particle insertion ins_acc_fill: inserted 4 particle templates (mass 1.608495e-04) at step 194396
 - a total of 385 particle templates (mass 1.548177e-02) inserted so far.
WARNING: Particle insertion: Less insertions than requested (../fix_insert.cpp:814)
INFO: Particle insertion ins_acc_fill: inserted 4 particle templates (mass 1.608495e-04) at step 194849
 - a total of 389 particle templates (mass 1.564262e-02) inserted so far.
WARNING: Particle insertion: Less insertions than requested (../fix_insert.cpp:814)
INFO: Particle insertion ins_acc_fill: inserted 4 particle templates (mass 1.608495e-04) at step 195302
 - a total of 393 particle templates (mass 1.580347e-02) inserted so far.
WARNING: Particle insertion: Less insertions than requested (../fix_insert.cpp:814)
INFO: Particle insertion ins_acc_fill: inserted 3 particle templates (mass 1.206372e-04) at step 195755
 - a total of 396 particle templates (mass 1.592410e-02) inserted so far.
WARNING: Particle insertion: Less insertions than requested (../fix_insert.cpp:814)
INFO: Particle insertion ins_acc_fill: inserted 3 particle templates (mass 1.206372e-04) at step 196208
 - a total of 399 particle templates (mass 1.604474e-02) inserted so far.
WARNING: Particle insertion: Less insertions than requested (../fix_insert.cpp:814)
INFO: Particle insertion ins_acc_fill: inserted 4 particle templates (mass 1.608495e-04) at step 196661
 - a total of 403 particle templates (mass 1.620559e-02) inserted so far.
WARNING: Particle insertion: Less insertions than requested (../fix_insert.cpp:814)
INFO: Particle insertion ins_acc_fill: inserted 4 particle templates (mass 1.608495e-04) at step 197114
 - a total of 407 particle templates (mass 1.636644e-02) inserted so far.
WARNING: Particle insertion: Less insertions than requested (../fix_insert.cpp:814)
INFO: Particle insertion ins_acc_fill: inserted 3 particle templates (mass 1.206372e-04) at step 197567
 - a total of 410 particle templates (mass 1.648708e-02) inserted so far.
WARNING: Particle insertion: Less insertions than requested (../fix_insert.cpp:814)
INFO: Particle insertion ins_acc_fill: inserted 4 particle templates (mass 1.608495e-04) at step 198020
 - a total of 414 particle templates (mass 1.664793e-02) inserted so far.
WARNING: Particle insertion: Less insertions than requested (../fix_insert.cpp:814)
INFO: Particle insertion ins_acc_fill: inserted 4 particle templates (mass 1.608495e-04) at step 198473
 - a total of 418 particle templates (mass 1.680878e-02) inserted so far.
WARNING: Particle insertion: Less insertions than requested (../fix_insert.cpp:814)
INFO: Particle insertion ins_acc_fill: inserted 4 particle templates (mass 1.608495e-04) at step 198926
 - a total of 422 particle templates (mass 1.696963e-02) inserted so far.
WARNING: Particle insertion: Less insertions than requested (../fix_insert.cpp:814)
INFO: Particle insertion ins_acc_fill: inserted 4 particle templates (mass 1.608495e-04) at step 199379
 - a total of 426 particle templates (mass 1.713048e-02) inserted so far.
WARNING: Particle insertion: Less insertions than requested (../fix_insert.cpp:814)
INFO: Particle insertion ins_acc_fill: inserted 3 particle templates (mass 1.206372e-04) at step 199832
 - a total of 429 particle templates (mass 1.725111e-02) inserted so far.
WARNING: Particle insertion: Less insertions than requested (../fix_insert.cpp:814)
INFO: Particle insertion ins_acc_fill: inserted 4 particle templates (mass 1.608495e-04) at step 200285
 - a total of 433 particle templates (mass 1.741196e-02) inserted so far.
WARNING: Particle insertion: Less insertions than requested (../fix_insert.cpp:814)
INFO: Particle insertion ins_acc_fill: inserted 4 particle templates (mass 1.608495e-04) at step 200738
 - a total of 437 particle templates (mass 1.757281e-02) inserted so far.
WARNING: Particle insertion: Less insertions than requested (../fix_insert.cpp:814)
INFO: Particle insertion ins_acc_fill: inserted 4 particle templates (mass 1.608495e-04) at step 201191
 - a total of 441 particle templates (mass 1.773366e-02) inserted so far.
WARNING: Particle insertion: Less insertions than requested (../fix_insert.cpp:814)
INFO: Particle insertion ins_acc_fill: inserted 4 particle templates (mass 1.608495e-04) at step 201644
 - a total of 445 particle templates (mass 1.789451e-02) inserted so far.
WARNING: Particle insertion: Less insertions than requested (../fix_insert.cpp:814)
INFO: Particle insertion ins_acc_fill: inserted 4 particle templates (mass 1.608495e-04) at step 202097
 - a total of 449 particle templates (mass 1.805536e-02) inserted so far.
WARNING: Particle insertion: Less insertions than requested (../fix_insert.cpp:814)
INFO: Particle insertion ins_acc_fill: inserted 3 particle templates (mass 1.206372e-04) at step 202550
 - a total of 452 particle templates (mass 1.817600e-02) inserted so far.
WARNING: Particle insertion: Less insertions than requested (../fix_insert.cpp:814)
INFO: Particle insertion ins_acc_fill: inserted 3 particle templates (mass 1.206372e-04) at step 203003
 - a total of 455 particle templates (mass 1.829664e-02) inserted so far.
WARNING: Particle insertion: Less insertions than requested (../fix_insert.cpp:814)
INFO: Particle insertion ins_acc_fill: inserted 4 particle templates (mass 1.608495e-04) at step 203456
 - a total of 459 particle templates (mass 1.845749e-02) inserted so far.
WARNING: Particle insertion: Less insertions than requested (../fix_insert.cpp:814)
INFO: Particle insertion ins_acc_fill: inserted 4 particle templates (mass 1.608495e-04) at step 203909
 - a total of 463 particle templates (mass 1.861833e-02) inserted so far.
WARNING: Particle insertion: Less insertions than requested (../fix_insert.cpp:814)
INFO: Particle insertion ins_acc_fill: inserted 4 particle templates (mass 1.608495e-04) at step 204362
 - a total of 467 particle templates (mass 1.877918e-02) inserted so far.
WARNING: Particle insertion: Less insertions than requested (../fix_insert.cpp:814)
INFO: Particle insertion ins_acc_fill: inserted 4 particle templates (mass 1.608495e-04) at step 204815
 - a total of 471 particle templates (mass 1.894003e-02) inserted so far.
WARNING: Particle insertion: Less insertions than requested (../fix_insert.cpp:814)
INFO: Particle insertion ins_acc_fill: inserted 4 particle templates (mass 1.608495e-04) at step 205268
 - a total of 475 particle templates (mass 1.910088e-02) inserted so far.
WARNING: Particle insertion: Less insertions than requested (../fix_insert.cpp:814)
INFO: Particle insertion ins_acc_fill: inserted 4 particle templates (mass 1.608495e-04) at step 205721
 - a total of 479 particle templates (mass 1.926173e-02) inserted so far.
WARNING: Particle insertion: Less insertions than requested (../fix_insert.cpp:814)
INFO: Particle insertion ins_acc_fill: inserted 4 particle templates (mass 1.608495e-04) at step 206174
 - a total of 483 particle templates (mass 1.942258e-02) inserted so far.
WARNING: Particle insertion: Less insertions than requested (../fix_insert.cpp:814)
INFO: Particle insertion ins_acc_fill: inserted 4 particle templates (mass 1.608495e-04) at step 206627
 - a total of 487 particle templates (mass 1.958343e-02) inserted so far.
WARNING: Particle insertion: Less insertions than requested (../fix_insert.cpp:814)
INFO: Particle insertion ins_acc_fill: inserted 3 particle templates (mass 1.206372e-04) at step 207080
 - a total of 490 particle templates (mass 1.970407e-02) inserted so far.
WARNING: Particle insertion: Less insertions than requested (../fix_insert.cpp:814)
INFO: Particle insertion ins_acc_fill: inserted 3 particle templates (mass 1.206372e-04) at step 207533
 - a total of 493 particle templates (mass 1.982471e-02) inserted so far.
WARNING: Particle insertion: Less insertions than requested (../fix_insert.cpp:814)
INFO: Particle insertion ins_acc_fill: inserted 4 particle templates (mass 1.608495e-04) at step 207986
 - a total of 497 particle templates (mass 1.998556e-02) inserted so far.
WARNING: Particle insertion: Less insertions than requested (../fix_insert.cpp:814)
INFO: Particle insertion ins_acc_fill: inserted 4 particle templates (mass 1.608495e-04) at step 208439
 - a total of 501 particle templates (mass 2.014641e-02) inserted so far.
WARNING: Particle insertion: Less insertions than requested (../fix_insert.cpp:814)
INFO: Particle insertion ins_acc_fill: inserted 4 particle templates (mass 1.608495e-04) at step 208892
 - a total of 505 particle templates (mass 2.030725e-02) inserted so far.
WARNING: Particle insertion: Less insertions than requested (../fix_insert.cpp:814)
INFO: Particle insertion ins_acc_fill: inserted 4 particle templates (mass 1.608495e-04) at step 209345
 - a total of 509 particle templates (mass 2.046810e-02) inserted so far.
WARNING: Particle insertion: Less insertions than requested (../fix_insert.cpp:814)
INFO: Particle insertion ins_acc_fill: inserted 4 particle templates (mass 1.608495e-04) at step 209798
 - a total of 513 particle templates (mass 2.062895e-02) inserted so far.
WARNING: Particle insertion: Less insertions than requested (../fix_insert.cpp:814)
INFO: Particle insertion ins_acc_fill: inserted 4 particle templates (mass 1.608495e-04) at step 210251
 - a total of 517 particle templates (mass 2.078980e-02) inserted so far.
WARNING: Particle insertion: Less insertions than requested (../fix_insert.cpp:814)
INFO: Particle insertion ins_acc_fill: inserted 4 particle templates (mass 1.608495e-04) at step 210704
 - a total of 521 particle templates (mass 2.095065e-02) inserted so far.
WARNING: Particle insertion: Less insertions than requested (../fix_insert.cpp:814)
INFO: Particle insertion ins_acc_fill: inserted 3 particle templates (mass 1.206372e-04) at step 211157
 - a total of 524 particle templates (mass 2.107129e-02) inserted so far.
WARNING: Particle insertion: Less insertions than requested (../fix_insert.cpp:814)
INFO: Particle insertion ins_acc_fill: inserted 4 particle templates (mass 1.608495e-04) at step 211610
 - a total of 528 particle templates (mass 2.123214e-02) inserted so far.
WARNING: Particle insertion: Less insertions than requested (../fix_insert.cpp:814)
INFO: Particle insertion ins_acc_fill: inserted 4 particle templates (mass 1.608495e-04) at step 212063
 - a total of 532 particle templates (mass 2.139299e-02) inserted so far.
WARNING: Particle insertion: Less insertions than requested (../fix_insert.cpp:814)
INFO: Particle insertion ins_acc_fill: inserted 4 particle templates (mass 1.608495e-04) at step 212516
 - a total of 536 particle templates (mass 2.155384e-02) inserted so far.
WARNING: Particle insertion: Less insertions than requested (../fix_insert.cpp:814)
INFO: Particle insertion ins_acc_fill: inserted 3 particle templates (mass 1.206372e-04) at step 212969
 - a total of 539 particle templates (mass 2.167448e-02) inserted so far.
WARNING: Particle insertion: Less insertions than requested (../fix_insert.cpp:814)
INFO: Particle insertion ins_acc_fill: inserted 3 particle templates (mass 1.206372e-04) at step 213422
 - a total of 542 particle templates (mass 2.179511e-02) inserted so far.
WARNING: Particle insertion: Less insertions than requested (../fix_insert.cpp:814)
INFO: Particle insertion ins_acc_fill: inserted 4 particle templates (mass 1.608495e-04) at step 213875
 - a total of 546 particle templates (mass 2.195596e-02) inserted so far.
WARNING: Particle insertion: Less insertions than requested (../fix_insert.cpp:814)
INFO: Particle insertion ins_acc_fill: inserted 4 particle templates (mass 1.608495e-04) at step 214328
 - a total of 550 particle templates (mass 2.211681e-02) inserted so far.
WARNING: Particle insertion: Less insertions than requested (../fix_insert.cpp:814)
INFO: Particle insertion ins_acc_fill: inserted 4 particle templates (mass 1.608495e-04) at step 214781
 - a total of 554 particle templates (mass 2.227766e-02) inserted so far.
WARNING: Particle insertion: Less insertions than requested (../fix_insert.cpp:814)
INFO: Particle insertion ins_acc_fill: inserted 5 particle templates (mass 2.010619e-04) at step 215234
 - a total of 559 particle templates (mass 2.247872e-02) inserted so far.
WARNING: Particle insertion: Less insertions than requested (../fix_insert.cpp:814)
INFO: Particle insertion ins_acc_fill: inserted 4 particle templates (mass 1.608495e-04) at step 215687
 - a total of 563 particle templates (mass 2.263957e-02) inserted so far.
WARNING: Particle insertion: Less insertions than requested (../fix_insert.cpp:814)
INFO: Particle insertion ins_acc_fill: inserted 4 particle templates (mass 1.608495e-04) at step 216140
 - a total of 567 particle templates (mass 2.280042e-02) inserted so far.
WARNING: Particle insertion: Less insertions than requested (../fix_insert.cpp:814)
INFO: Particle insertion ins_acc_fill: inserted 4 particle templates (mass 1.608495e-04) at step 216593
 - a total of 571 particle templates (mass 2.296127e-02) inserted so far.
WARNING: Particle insertion: Less insertions than requested (../fix_insert.cpp:814)
INFO: Particle insertion ins_acc_fill: inserted 4 particle templates (mass 1.608495e-04) at step 217046
 - a total of 575 particle templates (mass 2.312212e-02) inserted so far.
WARNING: Particle insertion: Less insertions than requested (../fix_insert.cpp:814)
INFO: Particle insertion ins_acc_fill: inserted 4 particle templates (mass 1.608495e-04) at step 217499
 - a total of 579 particle templates (mass 2.328297e-02) inserted so far.
WARNING: Particle insertion: Less insertions than requested (../fix_insert.cpp:814)
INFO: Particle insertion ins_acc_fill: inserted 4 particle templates (mass 1.608495e-04) at step 217952
 - a total of 583 particle templates (mass 2.344382e-02) inserted so far.
WARNING: Particle insertion: Less insertions than requested (../fix_insert.cpp:814)
INFO: Particle insertion ins_acc_fill: inserted 4 particle templates (mass 1.608495e-04) at step 218405
 - a total of 587 particle templates (mass 2.360467e-02) inserted so far.
WARNING: Particle insertion: Less insertions than requested (../fix_insert.cpp:814)
INFO: Particle insertion ins_acc_fill: inserted 3 particle templates (mass 1.206372e-04) at step 218858
 - a total of 590 particle templates (mass 2.372531e-02) inserted so far.
WARNING: Particle insertion: Less insertions than requested (../fix_insert.cpp:814)
INFO: Particle insertion ins_acc_fill: inserted 5 particle templates (mass 2.010619e-04) at step 219311
 - a total of 595 particle templates (mass 2.392637e-02) inserted so far.
WARNING: Particle insertion: Less insertions than requested (../fix_insert.cpp:814)
INFO: Particle insertion ins_acc_fill: inserted 3 particle templates (mass 1.206372e-04) at step 219764
 - a total of 598 particle templates (mass 2.404701e-02) inserted so far.
WARNING: Particle insertion: Less insertions than requested (../fix_insert.cpp:814)
INFO: Particle insertion ins_acc_fill: inserted 4 particle templates (mass 1.608495e-04) at step 220217
 - a total of 602 particle templates (mass 2.420786e-02) inserted so far.
WARNING: Particle insertion: Less insertions than requested (../fix_insert.cpp:814)
INFO: Particle insertion ins_acc_fill: inserted 4 particle templates (mass 1.608495e-04) at step 220670
 - a total of 606 particle templates (mass 2.436871e-02) inserted so far.
WARNING: Particle insertion: Less insertions than requested (../fix_insert.cpp:814)
INFO: Particle insertion ins_acc_fill: inserted 4 particle templates (mass 1.608495e-04) at step 221123
 - a total of 610 particle templates (mass 2.452956e-02) inserted so far.
WARNING: Particle insertion: Less insertions than requested (../fix_insert.cpp:814)
INFO: Particle insertion ins_acc_fill: inserted 4 particle templates (mass 1.608495e-04) at step 221576
 - a total of 614 particle templates (mass 2.469040e-02) inserted so far.
WARNING: Particle insertion: Less insertions than requested (../fix_insert.cpp:814)
INFO: Particle insertion ins_acc_fill: inserted 4 particle templates (mass 1.608495e-04) at step 222029
 - a total of 618 particle templates (mass 2.485125e-02) inserted so far.
WARNING: Particle insertion: Less insertions than requested (../fix_insert.cpp:814)
INFO: Particle insertion ins_acc_fill: inserted 4 particle templates (mass 1.608495e-04) at step 222482
 - a total of 622 particle templates (mass 2.501210e-02) inserted so far.
WARNING: Particle insertion: Less insertions than requested (../fix_insert.cpp:814)
INFO: Particle insertion ins_acc_fill: inserted 3 particle templates (mass 1.206372e-04) at step 222935
 - a total of 625 particle templates (mass 2.513274e-02) inserted so far.
WARNING: Particle insertion: Less insertions than requested (../fix_insert.cpp:814)
INFO: Particle insertion ins_acc_fill: inserted 3 particle templates (mass 1.206372e-04) at step 223388
 - a total of 628 particle templates (mass 2.525338e-02) inserted so far.
WARNING: Particle insertion: Less insertions than requested (../fix_insert.cpp:814)
INFO: Particle insertion ins_acc_fill: inserted 5 particle templates (mass 2.010619e-04) at step 223841
 - a total of 633 particle templates (mass 2.545444e-02) inserted so far.
WARNING: Particle insertion: Less insertions than requested (../fix_insert.cpp:814)
INFO: Particle insertion ins_acc_fill: inserted 4 particle templates (mass 1.608495e-04) at step 224294
 - a total of 637 particle templates (mass 2.561529e-02) inserted so far.
WARNING: Particle insertion: Less insertions than requested (../fix_insert.cpp:814)
INFO: Particle insertion ins_acc_fill: inserted 4 particle templates (mass 1.608495e-04) at step 224747
 - a total of 641 particle templates (mass 2.577614e-02) inserted so far.
WARNING: Particle insertion: Less insertions than requested (../fix_insert.cpp:814)
INFO: Particle insertion ins_acc_fill: inserted 4 particle templates (mass 1.608495e-04) at step 225200
 - a total of 645 particle templates (mass 2.593699e-02) inserted so far.
WARNING: Particle insertion: Less insertions than requested (../fix_insert.cpp:814)
INFO: Particle insertion ins_acc_fill: inserted 3 particle templates (mass 1.206372e-04) at step 225653
 - a total of 648 particle templates (mass 2.605763e-02) inserted so far.
WARNING: Particle insertion: Less insertions than requested (../fix_insert.cpp:814)
INFO: Particle insertion ins_acc_fill: inserted 4 particle templates (mass 1.608495e-04) at step 226106
 - a total of 652 particle templates (mass 2.621848e-02) inserted so far.
[...]
INFO: Particle insertion ins_acc_fill: inserted 3 particle templates (mass 1.206372e-04) at step 273671
 - a total of 1053 particle templates (mass 4.234364e-02) inserted so far.
WARNING: Particle insertion: Less insertions than requested (../fix_insert.cpp:814)
INFO: Particle insertion ins_acc_fill: inserted 4 particle templates (mass 1.608495e-04) at step 274124
 - a total of 1057 particle templates (mass 4.250449e-02) inserted so far.
WARNING: Particle insertion: Less insertions than requested (../fix_insert.cpp:814)
INFO: Particle insertion ins_acc_fill: inserted 4 particle templates (mass 1.608495e-04) at step 274577
 - a total of 1061 particle templates (mass 4.266534e-02) inserted so far.
WARNING: Particle insertion: Less insertions than requested (../fix_insert.cpp:814)
INFO: Particle insertion ins_acc_fill: inserted 4 particle templates (mass 1.608495e-04) at step 275030
 - a total of 1065 particle templates (mass 4.282619e-02) inserted so far.
WARNING: Particle insertion: Less insertions than requested (../fix_insert.cpp:814)
INFO: Particle insertion ins_acc_fill: inserted 3 particle templates (mass 1.206372e-04) at step 275483
 - a total of 1068 particle templates (mass 4.294683e-02) inserted so far.
WARNING: Particle insertion: Less insertions than requested (../fix_insert.cpp:814)
INFO: Particle insertion ins_acc_fill: inserted 4 particle templates (mass 1.608495e-04) at step 275936
 - a total of 1072 particle templates (mass 4.310768e-02) inserted so far.
WARNING: Particle insertion: Less insertions than requested (../fix_insert.cpp:814)
INFO: Particle insertion ins_acc_fill: inserted 3 particle templates (mass 1.206372e-04) at step 276389
 - a total of 1075 particle templates (mass 4.322831e-02) inserted so far.
WARNING: Particle insertion: Less insertions than requested (../fix_insert.cpp:814)
INFO: Particle insertion ins_acc_fill: inserted 4 particle templates (mass 1.608495e-04) at step 276842
 - a total of 1079 particle templates (mass 4.338916e-02) inserted so far.
WARNING: Particle insertion: Less insertions than requested (../fix_insert.cpp:814)
INFO: Particle insertion ins_acc_fill: inserted 4 particle templates (mass 1.608495e-04) at step 277295
 - a total of 1083 particle templates (mass 4.355001e-02) inserted so far.
WARNING: Particle insertion: Less insertions than requested (../fix_insert.cpp:814)
INFO: Particle insertion ins_acc_fill: inserted 3 particle templates (mass 1.206372e-04) at step 277748
 - a total of 1086 particle templates (mass 4.367065e-02) inserted so far.
WARNING: Particle insertion: Less insertions than requested (../fix_insert.cpp:814)
INFO: Particle insertion ins_acc_fill: inserted 4 particle templates (mass 1.608495e-04) at step 278201
 - a total of 1090 particle templates (mass 4.383150e-02) inserted so far.
WARNING: Particle insertion: Less insertions than requested (../fix_insert.cpp:814)
INFO: Particle insertion ins_acc_fill: inserted 3 particle templates (mass 1.206372e-04) at step 278654
 - a total of 1093 particle templates (mass 4.395214e-02) inserted so far.
WARNING: Particle insertion: Less insertions than requested (../fix_insert.cpp:814)
INFO: Particle insertion ins_acc_fill: inserted 4 particle templates (mass 1.608495e-04) at step 279107
 - a total of 1097 particle templates (mass 4.411299e-02) inserted so far.
WARNING: Particle insertion: Less insertions than requested (../fix_insert.cpp:814)
INFO: Particle insertion ins_acc_fill: inserted 3 particle templates (mass 1.206372e-04) at step 279560
 - a total of 1100 particle templates (mass 4.423362e-02) inserted so far.
WARNING: Particle insertion: Less insertions than requested (../fix_insert.cpp:814)
INFO: Particle insertion ins_acc_fill: inserted 3 particle templates (mass 1.206372e-04) at step 280013
 - a total of 1103 particle templates (mass 4.435426e-02) inserted so far.
WARNING: Particle insertion: Less insertions than requested (../fix_insert.cpp:814)
INFO: Particle insertion ins_acc_fill: inserted 4 particle templates (mass 1.608495e-04) at step 280466
 - a total of 1107 particle templates (mass 4.451511e-02) inserted so far.
WARNING: Particle insertion: Less insertions than requested (../fix_insert.cpp:814)
INFO: Particle insertion ins_acc_fill: inserted 4 particle templates (mass 1.608495e-04) at step 280919
 - a total of 1111 particle templates (mass 4.467596e-02) inserted so far.
WARNING: Particle insertion: Less insertions than requested (../fix_insert.cpp:814)
INFO: Particle insertion ins_acc_fill: inserted 4 particle templates (mass 1.608495e-04) at step 281372
 - a total of 1115 particle templates (mass 4.483681e-02) inserted so far.
WARNING: Particle insertion: Less insertions than requested (../fix_insert.cpp:814)
INFO: Particle insertion ins_acc_fill: inserted 4 particle templates (mass 1.608495e-04) at step 281825
 - a total of 1119 particle templates (mass 4.499766e-02) inserted so far.
WARNING: Particle insertion: Less insertions than requested (../fix_insert.cpp:814)
INFO: Particle insertion ins_acc_fill: inserted 4 particle templates (mass 1.608495e-04) at step 282278
 - a total of 1123 particle templates (mass 4.515851e-02) inserted so far.
WARNING: Particle insertion: Less insertions than requested (../fix_insert.cpp:814)
INFO: Particle insertion ins_acc_fill: inserted 3 particle templates (mass 1.206372e-04) at step 282731
 - a total of 1126 particle templates (mass 4.527915e-02) inserted so far.
WARNING: Particle insertion: Less insertions than requested (../fix_insert.cpp:814)
INFO: Particle insertion ins_acc_fill: inserted 4 particle templates (mass 1.608495e-04) at step 283184
 - a total of 1130 particle templates (mass 4.544000e-02) inserted so far.
WARNING: Particle insertion: Less insertions than requested (../fix_insert.cpp:814)
INFO: Particle insertion ins_acc_fill: inserted 4 particle templates (mass 1.608495e-04) at step 283637
 - a total of 1134 particle templates (mass 4.560085e-02) inserted so far.
WARNING: Particle insertion: Less insertions than requested (../fix_insert.cpp:814)
INFO: Particle insertion ins_acc_fill: inserted 4 particle templates (mass 1.608495e-04) at step 284090
 - a total of 1138 particle templates (mass 4.576170e-02) inserted so far.
WARNING: Particle insertion: Less insertions than requested (../fix_insert.cpp:814)
INFO: Particle insertion ins_acc_fill: inserted 4 particle templates (mass 1.608495e-04) at step 284543
 - a total of 1142 particle templates (mass 4.592254e-02) inserted so far.
WARNING: Particle insertion: Less insertions than requested (../fix_insert.cpp:814)
INFO: Particle insertion ins_acc_fill: inserted 4 particle templates (mass 1.608495e-04) at step 284996
 - a total of 1146 particle templates (mass 4.608339e-02) inserted so far.
WARNING: Particle insertion: Less insertions than requested (../fix_insert.cpp:814)
INFO: Particle insertion ins_acc_fill: inserted 4 particle templates (mass 1.608495e-04) at step 285449
 - a total of 1150 particle templates (mass 4.624424e-02) inserted so far.
WARNING: Particle insertion: Less insertions than requested (../fix_insert.cpp:814)
INFO: Particle insertion ins_acc_fill: inserted 4 particle templates (mass 1.608495e-04) at step 285902
 - a total of 1154 particle templates (mass 4.640509e-02) inserted so far.
WARNING: Particle insertion: Less insertions than requested (../fix_insert.cpp:814)
INFO: Particle insertion ins_acc_fill: inserted 4 particle templates (mass 1.608495e-04) at step 286355
 - a total of 1158 particle templates (mass 4.656594e-02) inserted so far.
WARNING: Particle insertion: Less insertions than requested (../fix_insert.cpp:814)
INFO: Particle insertion ins_acc_fill: inserted 4 particle templates (mass 1.608495e-04) at step 286808
 - a total of 1162 particle templates (mass 4.672679e-02) inserted so far.
WARNING: Particle insertion: Less insertions than requested (../fix_insert.cpp:814)
INFO: Particle insertion ins_acc_fill: inserted 4 particle templates (mass 1.608495e-04) at step 287261
 - a total of 1166 particle templates (mass 4.688764e-02) inserted so far.
WARNING: Particle insertion: Less insertions than requested (../fix_insert.cpp:814)
INFO: Particle insertion ins_acc_fill: inserted 4 particle templates (mass 1.608495e-04) at step 287714
 - a total of 1170 particle templates (mass 4.704849e-02) inserted so far.
WARNING: Particle insertion: Less insertions than requested (../fix_insert.cpp:814)
INFO: Particle insertion ins_acc_fill: inserted 4 particle templates (mass 1.608495e-04) at step 288167
 - a total of 1174 particle templates (mass 4.720934e-02) inserted so far.
WARNING: Particle insertion: Less insertions than requested (../fix_insert.cpp:814)
INFO: Particle insertion ins_acc_fill: inserted 3 particle templates (mass 1.206372e-04) at step 288620
 - a total of 1177 particle templates (mass 4.732998e-02) inserted so far.
WARNING: Particle insertion: Less insertions than requested (../fix_insert.cpp:814)
INFO: Particle insertion ins_acc_fill: inserted 5 particle templates (mass 2.010619e-04) at step 289073
 - a total of 1182 particle templates (mass 4.753104e-02) inserted so far.
WARNING: Particle insertion: Less insertions than requested (../fix_insert.cpp:814)
INFO: Particle insertion ins_acc_fill: inserted 4 particle templates (mass 1.608495e-04) at step 289526
 - a total of 1186 particle templates (mass 4.769189e-02) inserted so far.
WARNING: Particle insertion: Less insertions than requested (../fix_insert.cpp:814)
INFO: Particle insertion ins_acc_fill: inserted 4 particle templates (mass 1.608495e-04) at step 289979
 - a total of 1190 particle templates (mass 4.785274e-02) inserted so far.
WARNING: Particle insertion: Less insertions than requested (../fix_insert.cpp:814)
INFO: Particle insertion ins_acc_fill: inserted 4 particle templates (mass 1.608495e-04) at step 290432
 - a total of 1194 particle templates (mass 4.801359e-02) inserted so far.
WARNING: Particle insertion: Less insertions than requested (../fix_insert.cpp:814)
INFO: Particle insertion ins_acc_fill: inserted 4 particle templates (mass 1.608495e-04) at step 290885
 - a total of 1198 particle templates (mass 4.817444e-02) inserted so far.
WARNING: Particle insertion: Less insertions than requested (../fix_insert.cpp:814)
INFO: Particle insertion ins_acc_fill: inserted 4 particle templates (mass 1.608495e-04) at step 291338
 - a total of 1202 particle templates (mass 4.833529e-02) inserted so far.
WARNING: Particle insertion: Less insertions than requested (../fix_insert.cpp:814)
INFO: Particle insertion ins_acc_fill: inserted 4 particle templates (mass 1.608495e-04) at step 291791
 - a total of 1206 particle templates (mass 4.849614e-02) inserted so far.
WARNING: Particle insertion: Less insertions than requested (../fix_insert.cpp:814)
INFO: Particle insertion ins_acc_fill: inserted 5 particle templates (mass 2.010619e-04) at step 292244
 - a total of 1211 particle templates (mass 4.869720e-02) inserted so far.
WARNING: Particle insertion: Less insertions than requested (../fix_insert.cpp:814)
INFO: Particle insertion ins_acc_fill: inserted 4 particle templates (mass 1.608495e-04) at step 292697
 - a total of 1215 particle templates (mass 4.885805e-02) inserted so far.
WARNING: Particle insertion: Less insertions than requested (../fix_insert.cpp:814)
INFO: Particle insertion ins_acc_fill: inserted 3 particle templates (mass 1.206372e-04) at step 293150
 - a total of 1218 particle templates (mass 4.897869e-02) inserted so far.
WARNING: Particle insertion: Less insertions than requested (../fix_insert.cpp:814)
INFO: Particle insertion ins_acc_fill: inserted 3 particle templates (mass 1.206372e-04) at step 293603
 - a total of 1221 particle templates (mass 4.909932e-02) inserted so far.
WARNING: Particle insertion: Less insertions than requested (../fix_insert.cpp:814)
INFO: Particle insertion ins_acc_fill: inserted 3 particle templates (mass 1.206372e-04) at step 294056
 - a total of 1224 particle templates (mass 4.921996e-02) inserted so far.
WARNING: Particle insertion: Less insertions than requested (../fix_insert.cpp:814)
INFO: Particle insertion ins_acc_fill: inserted 4 particle templates (mass 1.608495e-04) at step 294509
 - a total of 1228 particle templates (mass 4.938081e-02) inserted so far.
WARNING: Particle insertion: Less insertions than requested (../fix_insert.cpp:814)
INFO: Particle insertion ins_acc_fill: inserted 4 particle templates (mass 1.608495e-04) at step 294962
 - a total of 1232 particle templates (mass 4.954166e-02) inserted so far.
WARNING: Particle insertion: Less insertions than requested (../fix_insert.cpp:814)
INFO: Particle insertion ins_acc_fill: inserted 4 particle templates (mass 1.608495e-04) at step 295415
 - a total of 1236 particle templates (mass 4.970251e-02) inserted so far.
WARNING: Particle insertion: Less insertions than requested (../fix_insert.cpp:814)
INFO: Particle insertion ins_acc_fill: inserted 3 particle templates (mass 1.206372e-04) at step 295868
 - a total of 1239 particle templates (mass 4.982315e-02) inserted so far.
WARNING: Particle insertion: Less insertions than requested (../fix_insert.cpp:814)
INFO: Particle insertion ins_acc_fill: inserted 4 particle templates (mass 1.608495e-04) at step 296321
 - a total of 1243 particle templates (mass 4.998400e-02) inserted so far.
WARNING: Particle insertion: Less insertions than requested (../fix_insert.cpp:814)
INFO: Particle insertion ins_acc_fill: inserted 4 particle templates (mass 1.608495e-04) at step 296774
 - a total of 1247 particle templates (mass 5.014485e-02) inserted so far.
WARNING: Particle insertion: Less insertions than requested (../fix_insert.cpp:814)
INFO: Particle insertion ins_acc_fill: inserted 4 particle templates (mass 1.608495e-04) at step 297227
 - a total of 1251 particle templates (mass 5.030569e-02) inserted so far.
WARNING: Particle insertion: Less insertions than requested (../fix_insert.cpp:814)
INFO: Particle insertion ins_acc_fill: inserted 3 particle templates (mass 1.206372e-04) at step 297680
 - a total of 1254 particle templates (mass 5.042633e-02) inserted so far.
WARNING: Particle insertion: Less insertions than requested (../fix_insert.cpp:814)
INFO: Particle insertion ins_acc_fill: inserted 5 particle templates (mass 2.010619e-04) at step 298133
 - a total of 1259 particle templates (mass 5.062739e-02) inserted so far.
WARNING: Particle insertion: Less insertions than requested (../fix_insert.cpp:814)
INFO: Particle insertion ins_acc_fill: inserted 4 particle templates (mass 1.608495e-04) at step 298586
 - a total of 1263 particle templates (mass 5.078824e-02) inserted so far.
WARNING: Particle insertion: Less insertions than requested (../fix_insert.cpp:814)
INFO: Particle insertion ins_acc_fill: inserted 3 particle templates (mass 1.206372e-04) at step 299039
 - a total of 1266 particle templates (mass 5.090888e-02) inserted so far.
WARNING: Particle insertion: Less insertions than requested (../fix_insert.cpp:814)
INFO: Particle insertion ins_acc_fill: inserted 4 particle templates (mass 1.608495e-04) at step 299492
 - a total of 1270 particle templates (mass 5.106973e-02) inserted so far.
WARNING: Particle insertion: Less insertions than requested (../fix_insert.cpp:814)
INFO: Particle insertion ins_acc_fill: inserted 4 particle templates (mass 1.608495e-04) at step 299945
 - a total of 1274 particle templates (mass 5.123058e-02) inserted so far.
WARNING: Particle insertion: Less insertions than requested (../fix_insert.cpp:814)
  300001     5262    0.044893115      4911.5053 
Loop time of 4911.51 on 6 procs for 150000 steps with 5262 atoms, finish time Mon Apr  3 00:04:47 2023


Pair  time (%) = 47.2865 (0.96277)
Neigh time (%) = 69.3482 (1.41195)
Comm  time (%) = 170.498 (3.4714)
Outpt time (%) = 31.8944 (0.64938)
Other time (%) = 4592.48 (93.5045)

Nlocal:    877 ave 2793 max 0 min
Histogram: 4 0 0 0 0 0 0 0 1 1
Nghost:    79.1667 ave 249 max 0 min
Histogram: 4 0 0 0 0 0 0 0 0 2
Neighs:    3759 ave 11951 max 0 min
Histogram: 4 0 0 0 0 0 0 0 1 1

Total # of neighbors = 22554
Ave neighs/atom = 4.2862
Neighbor list builds = 55319
Dangerous builds = 27624


unfix 	Movescrew
unfix 	Movescrew_inv


run     ${settlesteps}
run     5000
Setting up run at Mon Apr  3 00:04:47 2023

Memory usage per processor = 26.5892 Mbytes
    Step    Atoms         KinEng            CPU 
  300001     5262    0.044893115              0 
INFO: Particle insertion ins_acc_fill: inserted 3 particle templates (mass 1.206372e-04) at step 300398
 - a total of 1277 particle templates (mass 5.135122e-02) inserted so far.
WARNING: Particle insertion: Less insertions than requested (../fix_insert.cpp:814)
INFO: Particle insertion ins_acc_fill: inserted 4 particle templates (mass 1.608495e-04) at step 300851
 - a total of 1281 particle templates (mass 5.151207e-02) inserted so far.
WARNING: Particle insertion: Less insertions than requested (../fix_insert.cpp:814)
INFO: Particle insertion ins_acc_fill: inserted 4 particle templates (mass 1.608495e-04) at step 301304
 - a total of 1285 particle templates (mass 5.167292e-02) inserted so far.
WARNING: Particle insertion: Less insertions than requested (../fix_insert.cpp:814)
INFO: Particle insertion ins_acc_fill: inserted 4 particle templates (mass 1.608495e-04) at step 301757
 - a total of 1289 particle templates (mass 5.183377e-02) inserted so far.
WARNING: Particle insertion: Less insertions than requested (../fix_insert.cpp:814)
INFO: Particle insertion ins_acc_fill: inserted 3 particle templates (mass 1.206372e-04) at step 302210
 - a total of 1292 particle templates (mass 5.195440e-02) inserted so far.
WARNING: Particle insertion: Less insertions than requested (../fix_insert.cpp:814)
INFO: Particle insertion ins_acc_fill: inserted 3 particle templates (mass 1.206372e-04) at step 302663
 - a total of 1295 particle templates (mass 5.207504e-02) inserted so far.
WARNING: Particle insertion: Less insertions than requested (../fix_insert.cpp:814)
INFO: Particle insertion ins_acc_fill: inserted 4 particle templates (mass 1.608495e-04) at step 303116
 - a total of 1299 particle templates (mass 5.223589e-02) inserted so far.
WARNING: Particle insertion: Less insertions than requested (../fix_insert.cpp:814)
INFO: Particle insertion ins_acc_fill: inserted 4 particle templates (mass 1.608495e-04) at step 303569
 - a total of 1303 particle templates (mass 5.239674e-02) inserted so far.
WARNING: Particle insertion: Less insertions than requested (../fix_insert.cpp:814)
INFO: Particle insertion ins_acc_fill: inserted 4 particle templates (mass 1.608495e-04) at step 304022
 - a total of 1307 particle templates (mass 5.255759e-02) inserted so far.
WARNING: Particle insertion: Less insertions than requested (../fix_insert.cpp:814)
INFO: Particle insertion ins_acc_fill: inserted 3 particle templates (mass 1.206372e-04) at step 304475
 - a total of 1310 particle templates (mass 5.267823e-02) inserted so far.
WARNING: Particle insertion: Less insertions than requested (../fix_insert.cpp:814)
INFO: Particle insertion ins_acc_fill: inserted 4 particle templates (mass 1.608495e-04) at step 304928
 - a total of 1314 particle templates (mass 5.283908e-02) inserted so far.
WARNING: Particle insertion: Less insertions than requested (../fix_insert.cpp:814)
  305001     5258   0.0060249177      140.12158 
Loop time of 140.122 on 6 procs for 5000 steps with 5258 atoms, finish time Mon Apr  3 00:07:08 2023


Pair  time (%) = 1.80023 (1.28476)
Neigh time (%) = 2.36693 (1.68919)
Comm  time (%) = 2.47405 (1.76564)
Outpt time (%) = 0.976428 (0.696843)
Other time (%) = 132.504 (94.5636)

Nlocal:    876.333 ave 2729 max 0 min
Histogram: 4 0 0 0 0 0 0 0 0 2
Nghost:    80 ave 246 max 0 min
Histogram: 4 0 0 0 0 0 0 0 0 2
Neighs:    3953.5 ave 12347 max 0 min
Histogram: 4 0 0 0 0 0 0 0 0 2

Total # of neighbors = 23721
Ave neighs/atom = 4.51141
Neighbor list builds = 1808
Dangerous builds = 885

write_restart resrart/reactor.restart

